# AFLOW.org Repositories
# Ag1Dy1Si1 #189 - (Ag1Dy1Si1_ICSD_605085)
data_Ag1Dy1Si1
_pd_phase_name Ag1Dy1Si1
_cell_length_a  7.0877775870
_cell_length_b  7.0877775870
_cell_length_c  4.1885431994
_cell_angle_alpha  90.0000000000
_cell_angle_beta  90.0000000000
_cell_angle_gamma  120.0000000000
_symmetry_space_group_name_H-M  'P1'
_symmetry_Int_Tables_Number  1
loop_
_symmetry_equiv_pos_site_id
_symmetry_equiv_pos_as_xyz
  1  x,y,z
loop_
 _atom_site_label
 _atom_site_occupancy
 _atom_site_fract_x
 _atom_site_fract_y
 _atom_site_fract_z
 _atom_site_thermal_displace_type
 _atom_site_B_iso_or_equiv
 _atom_site_type_symbol
Ag1 1.0000000000 0.0000000000 0.7513248215 0.0000000000  Biso 1.0 Ag
Ag2 1.0000000000 0.2486751785 0.2486751785 0.0000000000  Biso 1.0 Ag
Ag3 1.0000000000 0.7513252514 0.0000000000 0.0000000000  Biso 1.0 Ag
Dy4 1.0000000000 0.0000000000 0.4175685938 0.5000000000  Biso 1.0 Dy
Dy5 1.0000000000 0.5824314062 0.5824314062 0.5000000000  Biso 1.0 Dy
Dy6 1.0000000000 0.4175680940 0.0000000000 0.5000000000  Biso 1.0 Dy
Si7 1.0000000000 0.6666665480 0.3333327485 0.0000000000  Biso 1.0 Si
Si8 1.0000000000 0.3333337995 0.6666672515 0.0000000000  Biso 1.0 Si
Si9 1.0000000000 0.0000000000 0.0000000000 0.5000000000  Biso 1.0 Si
