# AFLOW.org Repositories
# Ag1Hf2 #139 - (Ag1Hf2_ICSD_163152) - Ag1
data_Ag1Hf2
_pd_phase_name Ag1Hf2
_cell_length_a  6.4709535699
_cell_length_b  6.4709535699
_cell_length_c  6.4709535699
_cell_angle_alpha  151.2805078972
_cell_angle_beta  151.2805078972
_cell_angle_gamma  41.0649423348
_symmetry_space_group_name_H-M  'P1'
_symmetry_Int_Tables_Number  1
loop_
_symmetry_equiv_pos_site_id
_symmetry_equiv_pos_as_xyz
  1  x,y,z
loop_
 _atom_site_label
 _atom_site_occupancy
 _atom_site_fract_x
 _atom_site_fract_y
 _atom_site_fract_z
 _atom_site_thermal_displace_type
 _atom_site_B_iso_or_equiv
 _atom_site_type_symbol
Ag1 1.0000000000 0.0000000000 0.0000000000 0.0000000000  Biso 1.0 Ag
Hf2 1.0000000000 0.3332604410 0.3332604410 0.0000000000  Biso 1.0 Hf
Hf3 1.0000000000 0.6667395590 0.6667395590 0.0000000000  Biso 1.0 Hf
