# AFLOW.org Repositories
# Al1Mg1Y1 #189 - (Al1Mg1Y1_ICSD_160908) -
data_Al1Mg1Y1
_pd_phase_name Al1Mg1Y1
_cell_length_a  7.3734269408
_cell_length_b  7.3734269408
_cell_length_c  4.5422086935
_cell_angle_alpha  90.0000000000
_cell_angle_beta  90.0000000000
_cell_angle_gamma  120.0000000000
_symmetry_space_group_name_H-M  'P1'
_symmetry_Int_Tables_Number  1
loop_
_symmetry_equiv_pos_site_id
_symmetry_equiv_pos_as_xyz
  1  x,y,z
loop_
 _atom_site_label
 _atom_site_occupancy
 _atom_site_fract_x
 _atom_site_fract_y
 _atom_site_fract_z
 _atom_site_thermal_displace_type
 _atom_site_B_iso_or_equiv
 _atom_site_type_symbol
Al1 1.0000000000 0.3333334106 0.6666671168 0.5000000000  Biso 1.0 Al
Al2 1.0000000000 0.6666665894 0.3333337063 0.5000000000  Biso 1.0 Al
Al3 1.0000000000 0.0000000000 0.0000000000 0.0000000000  Biso 1.0 Al
Mg4 1.0000000000 0.7585060095 0.7585060095 0.5000000000  Biso 1.0 Mg
Mg5 1.0000000000 0.2414920398 0.0000000000 0.5000000000  Biso 1.0 Mg
Mg6 1.0000000000 0.0000000000 0.2414924873 0.5000000000  Biso 1.0 Mg
Y7 1.0000000000 0.4324013518 0.4324013518 0.0000000000  Biso 1.0 Y
Y8 1.0000000000 0.5675994173 0.0000000000 0.0000000000  Biso 1.0 Y
Y9 1.0000000000 0.0000000000 0.5676007096 0.0000000000  Biso 1.0 Y
