# AFLOW.org Repositories
# Al1Sb1 #205 - (Al1Sb1_ICSD_41994) - Al1S
data_Al1Sb1
_pd_phase_name Al1Sb1
_cell_length_a  7.6095951319
_cell_length_b  7.6095951319
_cell_length_c  7.6095951319
_cell_angle_alpha  90.0000000000
_cell_angle_beta  90.0000000000
_cell_angle_gamma  90.0000000000
_symmetry_space_group_name_H-M  'P1'
_symmetry_Int_Tables_Number  1
loop_
_symmetry_equiv_pos_site_id
_symmetry_equiv_pos_as_xyz
  1  x,y,z
loop_
 _atom_site_label
 _atom_site_occupancy
 _atom_site_fract_x
 _atom_site_fract_y
 _atom_site_fract_z
 _atom_site_thermal_displace_type
 _atom_site_B_iso_or_equiv
 _atom_site_type_symbol
Al1 1.0000000000 0.3432832334 0.3432832334 0.3432832334  Biso 1.0 Al
Al2 1.0000000000 0.1567167666 0.6567167666 0.8432832334  Biso 1.0 Al
Al3 1.0000000000 0.6567167666 0.8432832334 0.1567167666  Biso 1.0 Al
Al4 1.0000000000 0.8432832334 0.1567167666 0.6567167666  Biso 1.0 Al
Al5 1.0000000000 0.6567167666 0.6567167666 0.6567167666  Biso 1.0 Al
Al6 1.0000000000 0.8432832334 0.3432832334 0.1567167666  Biso 1.0 Al
Al7 1.0000000000 0.3432832334 0.1567167666 0.8432832334  Biso 1.0 Al
Al8 1.0000000000 0.1567167666 0.8432832334 0.3432832334  Biso 1.0 Al
Sb9 1.0000000000 0.1410570541 0.1410570541 0.1410570541  Biso 1.0 Sb
Sb10 1.0000000000 0.3589429459 0.8589429459 0.6410570541  Biso 1.0 Sb
Sb11 1.0000000000 0.8589429459 0.6410570541 0.3589429459  Biso 1.0 Sb
Sb12 1.0000000000 0.6410570541 0.3589429459 0.8589429459  Biso 1.0 Sb
Sb13 1.0000000000 0.8589429459 0.8589429459 0.8589429459  Biso 1.0 Sb
Sb14 1.0000000000 0.6410570541 0.1410570541 0.3589429459  Biso 1.0 Sb
Sb15 1.0000000000 0.1410570541 0.3589429459 0.6410570541  Biso 1.0 Sb
Sb16 1.0000000000 0.3589429459 0.6410570541 0.1410570541  Biso 1.0 Sb
