# AFLOW.org Repositories
# Al3C3Tb1 #194 - (Al3C3Tb1_ICSD_606267) -
data_Al3C3Tb1
_pd_phase_name Al3C3Tb1
_cell_length_a  3.4430333343
_cell_length_b  3.4430333343
_cell_length_c  17.3819631340
_cell_angle_alpha  90.0000000000
_cell_angle_beta  90.0000000000
_cell_angle_gamma  120.0000000000
_symmetry_space_group_name_H-M  'P1'
_symmetry_Int_Tables_Number  1
loop_
_symmetry_equiv_pos_site_id
_symmetry_equiv_pos_as_xyz
  1  x,y,z
loop_
 _atom_site_label
 _atom_site_occupancy
 _atom_site_fract_x
 _atom_site_fract_y
 _atom_site_fract_z
 _atom_site_thermal_displace_type
 _atom_site_B_iso_or_equiv
 _atom_site_type_symbol
Al1 1.0000000000 0.3333308265 0.6666691735 0.1340205835  Biso 1.0 Al
Al2 1.0000000000 0.6666691735 0.3333308265 0.6340205835  Biso 1.0 Al
Al3 1.0000000000 0.6666691735 0.3333308265 0.8659794165  Biso 1.0 Al
Al4 1.0000000000 0.3333308265 0.6666691735 0.3659794165  Biso 1.0 Al
Al5 1.0000000000 0.3333412099 0.6666587901 0.7500000000  Biso 1.0 Al
Al6 1.0000000000 0.6666587901 0.3333412099 0.2500000000  Biso 1.0 Al
C7 1.0000000000 0.3333339952 0.6666660048 0.5937189325  Biso 1.0 C
C8 1.0000000000 0.6666660048 0.3333339952 0.0937189325  Biso 1.0 C
C9 1.0000000000 0.6666660048 0.3333339952 0.4062810675  Biso 1.0 C
C10 1.0000000000 0.3333339952 0.6666660048 0.9062810675  Biso 1.0 C
C11 1.0000000000 0.3333369796 0.6666630204 0.2500000000  Biso 1.0 C
C12 1.0000000000 0.6666630204 0.3333369796 0.7500000000  Biso 1.0 C
Tb13 1.0000000000 0.0000000000 0.0000000000 0.0000000000  Biso 1.0 Tb
Tb14 1.0000000000 0.0000000000 0.0000000000 0.5000000000  Biso 1.0 Tb
