# AFLOW.org Repositories
# Al3C4Hf2 #194 - (Al3C4Hf2_ICSD_161588) -
data_Al3C4Hf2
_pd_phase_name Al3C4Hf2
_cell_length_a  3.3355901657
_cell_length_b  3.3355901657
_cell_length_c  22.1552471166
_cell_angle_alpha  90.0000000000
_cell_angle_beta  90.0000000000
_cell_angle_gamma  120.0000000000
_symmetry_space_group_name_H-M  'P1'
_symmetry_Int_Tables_Number  1
loop_
_symmetry_equiv_pos_site_id
_symmetry_equiv_pos_as_xyz
  1  x,y,z
loop_
 _atom_site_label
 _atom_site_occupancy
 _atom_site_fract_x
 _atom_site_fract_y
 _atom_site_fract_z
 _atom_site_thermal_displace_type
 _atom_site_B_iso_or_equiv
 _atom_site_type_symbol
Al1 1.0000000000 0.0000000000 0.0000000000 0.1584964601  Biso 1.0 Al
Al2 1.0000000000 0.0000000000 0.0000000000 0.6584964601  Biso 1.0 Al
Al3 1.0000000000 0.0000000000 0.0000000000 0.8415035399  Biso 1.0 Al
Al4 1.0000000000 0.0000000000 0.0000000000 0.3415035399  Biso 1.0 Al
Al5 1.0000000000 0.3332251025 0.6667748975 0.2500000000  Biso 1.0 Al
Al6 1.0000000000 0.6667748975 0.3332251025 0.7500000000  Biso 1.0 Al
C7 1.0000000000 0.0000000000 0.0000000000 0.0000000000  Biso 1.0 C
C8 1.0000000000 0.0000000000 0.0000000000 0.5000000000  Biso 1.0 C
C9 1.0000000000 0.3332390507 0.6667609493 0.1267860001  Biso 1.0 C
C10 1.0000000000 0.6667609493 0.3332390507 0.6267860001  Biso 1.0 C
C11 1.0000000000 0.6667609493 0.3332390507 0.8732139999  Biso 1.0 C
C12 1.0000000000 0.3332390507 0.6667609493 0.3732139999  Biso 1.0 C
C13 1.0000000000 0.0000000000 0.0000000000 0.2500000000  Biso 1.0 C
C14 1.0000000000 0.0000000000 0.0000000000 0.7500000000  Biso 1.0 C
Hf15 1.0000000000 0.6666212759 0.3333787241 0.0576794781  Biso 1.0 Hf
Hf16 1.0000000000 0.3333787241 0.6666212759 0.5576794781  Biso 1.0 Hf
Hf17 1.0000000000 0.3333787241 0.6666212759 0.9423205219  Biso 1.0 Hf
Hf18 1.0000000000 0.6666212759 0.3333787241 0.4423205219  Biso 1.0 Hf
