# AFLOW.org Repositories
# As2Ba1Ge2 #105 - (As2Ba1Ge2_ICSD_26417) 
data_As2Ba1Ge2
_pd_phase_name As2Ba1Ge2
_cell_length_a  7.9281526806
_cell_length_b  7.9281526806
_cell_length_c  8.7999081707
_cell_angle_alpha  90.0000000000
_cell_angle_beta  90.0000000000
_cell_angle_gamma  90.0000000000
_symmetry_space_group_name_H-M  'P1'
_symmetry_Int_Tables_Number  1
loop_
_symmetry_equiv_pos_site_id
_symmetry_equiv_pos_as_xyz
  1  x,y,z
loop_
 _atom_site_label
 _atom_site_occupancy
 _atom_site_fract_x
 _atom_site_fract_y
 _atom_site_fract_z
 _atom_site_thermal_displace_type
 _atom_site_B_iso_or_equiv
 _atom_site_type_symbol
As1 1.0000000000 0.2290754878 0.2448840649 0.2557440444  Biso 1.0 As
As2 1.0000000000 0.7709245122 0.7551159351 0.2557440444  Biso 1.0 As
As3 1.0000000000 0.7551159351 0.2290754878 0.7557440444  Biso 1.0 As
As4 1.0000000000 0.2448840649 0.7709245122 0.7557440444  Biso 1.0 As
As5 1.0000000000 0.2290754878 0.7551159351 0.2557440444  Biso 1.0 As
As6 1.0000000000 0.7709245122 0.2448840649 0.2557440444  Biso 1.0 As
As7 1.0000000000 0.7551159351 0.7709245122 0.7557440444  Biso 1.0 As
As8 1.0000000000 0.2448840649 0.2290754878 0.7557440444  Biso 1.0 As
Ba9 1.0000000000 0.0000000000 0.0000000000 0.0000000000  Biso 1.0 Ba
Ba10 1.0000000000 0.0000000000 0.0000000000 0.4995292839  Biso 1.0 Ba
Ba11 1.0000000000 0.5000000000 0.0000000000 0.0242571061  Biso 1.0 Ba
Ba12 1.0000000000 0.0000000000 0.5000000000 0.5242571061  Biso 1.0 Ba
Ge13 1.0000000000 0.3341929024 0.5000000000 0.8657795744  Biso 1.0 Ge
Ge14 1.0000000000 0.6658070976 0.5000000000 0.8657795744  Biso 1.0 Ge
Ge15 1.0000000000 0.5000000000 0.3341929024 0.3657795744  Biso 1.0 Ge
Ge16 1.0000000000 0.5000000000 0.6658070976 0.3657795744  Biso 1.0 Ge
Ge17 1.0000000000 0.5000000000 0.1635040946 0.6076891418  Biso 1.0 Ge
Ge18 1.0000000000 0.5000000000 0.8364959054 0.6076891418  Biso 1.0 Ge
Ge19 1.0000000000 0.8364959054 0.5000000000 0.1076891418  Biso 1.0 Ge
Ge20 1.0000000000 0.1635040946 0.5000000000 0.1076891418  Biso 1.0 Ge
