# AFLOW.org Repositories
# Au1Dy1Sn1 #194 - (Au1Dy1Sn1_ICSD_611806)
data_Au1Dy1Sn1
_pd_phase_name Au1Dy1Sn1
_cell_length_a  4.7393547722
_cell_length_b  4.7393547722
_cell_length_c  7.4130771087
_cell_angle_alpha  90.0000000000
_cell_angle_beta  90.0000000000
_cell_angle_gamma  120.0000000000
_symmetry_space_group_name_H-M  'P1'
_symmetry_Int_Tables_Number  1
loop_
_symmetry_equiv_pos_site_id
_symmetry_equiv_pos_as_xyz
  1  x,y,z
loop_
 _atom_site_label
 _atom_site_occupancy
 _atom_site_fract_x
 _atom_site_fract_y
 _atom_site_fract_z
 _atom_site_thermal_displace_type
 _atom_site_B_iso_or_equiv
 _atom_site_type_symbol
Au1 1.0000000000 0.3333320371 0.6666679629 0.2500000000  Biso 1.0 Au
Au2 1.0000000000 0.6666679629 0.3333320371 0.7500000000  Biso 1.0 Au
Dy3 1.0000000000 0.0000000000 0.0000000000 0.0000000000  Biso 1.0 Dy
Dy4 1.0000000000 0.0000000000 0.0000000000 0.5000000000  Biso 1.0 Dy
Sn5 1.0000000000 0.3333382966 0.6666617034 0.7500000000  Biso 1.0 Sn
Sn6 1.0000000000 0.6666617034 0.3333382966 0.2500000000  Biso 1.0 Sn
