# AFLOW.org Repositories
# Au1La1 #62 - (Au1La1_ICSD_612101) - Au1L
data_Au1La1
_pd_phase_name Au1La1
_cell_length_a  4.9297158840
_cell_length_b  5.9991971049
_cell_length_c  7.6382704477
_cell_angle_alpha  90.0000000000
_cell_angle_beta  90.0000000000
_cell_angle_gamma  90.0000000000
_symmetry_space_group_name_H-M  'P1'
_symmetry_Int_Tables_Number  1
loop_
_symmetry_equiv_pos_site_id
_symmetry_equiv_pos_as_xyz
  1  x,y,z
loop_
 _atom_site_label
 _atom_site_occupancy
 _atom_site_fract_x
 _atom_site_fract_y
 _atom_site_fract_z
 _atom_site_thermal_displace_type
 _atom_site_B_iso_or_equiv
 _atom_site_type_symbol
Au1 1.0000000000 0.7500000000 0.3538630197 0.0407271881  Biso 1.0 Au
Au2 1.0000000000 0.2500000000 0.8538630197 0.4592728119  Biso 1.0 Au
Au3 1.0000000000 0.2500000000 0.6461369803 0.9592728119  Biso 1.0 Au
Au4 1.0000000000 0.7500000000 0.1461369803 0.5407271881  Biso 1.0 Au
La5 1.0000000000 0.7500000000 0.8588706463 0.1832603936  Biso 1.0 La
La6 1.0000000000 0.2500000000 0.3588706463 0.3167396064  Biso 1.0 La
La7 1.0000000000 0.2500000000 0.1411293537 0.8167396064  Biso 1.0 La
La8 1.0000000000 0.7500000000 0.6411293537 0.6832603936  Biso 1.0 La
