# AFLOW.org Repositories
# B1S3Tb1 #33 - (B1S3Tb1_ICSD_710042) - B1
data_B1S3Tb1
_pd_phase_name B1S3Tb1
_cell_length_a  6.1665541689
_cell_length_b  7.2240584158
_cell_length_c  8.7457316374
_cell_angle_alpha  90.0000000000
_cell_angle_beta  90.0000000000
_cell_angle_gamma  90.0000000000
_symmetry_space_group_name_H-M  'P1'
_symmetry_Int_Tables_Number  1
loop_
_symmetry_equiv_pos_site_id
_symmetry_equiv_pos_as_xyz
  1  x,y,z
loop_
 _atom_site_label
 _atom_site_occupancy
 _atom_site_fract_x
 _atom_site_fract_y
 _atom_site_fract_z
 _atom_site_thermal_displace_type
 _atom_site_B_iso_or_equiv
 _atom_site_type_symbol
B1 1.0000000000 0.3971651173 0.3576937058 0.4516042229  Biso 1.0 B
B2 1.0000000000 0.6028348827 0.6423062942 0.9516042229  Biso 1.0 B
B3 1.0000000000 0.1028348827 0.8576937058 0.4516042229  Biso 1.0 B
B4 1.0000000000 0.8971651173 0.1423062942 0.9516042229  Biso 1.0 B
S5 1.0000000000 0.3730192623 0.5082253577 0.2879495775  Biso 1.0 S
S6 1.0000000000 0.6269807377 0.4917746423 0.7879495775  Biso 1.0 S
S7 1.0000000000 0.1269807377 0.0082253577 0.2879495775  Biso 1.0 S
S8 1.0000000000 0.8730192623 0.9917746423 0.7879495775  Biso 1.0 S
S9 1.0000000000 0.6335129120 0.2079382061 0.4796960327  Biso 1.0 S
S10 1.0000000000 0.3664870880 0.7920617939 0.9796960327  Biso 1.0 S
S11 1.0000000000 0.8664870880 0.7079382061 0.4796960327  Biso 1.0 S
S12 1.0000000000 0.1335129120 0.2920617939 0.9796960327  Biso 1.0 S
S13 1.0000000000 0.1727300173 0.3255080443 0.5855791153  Biso 1.0 S
S14 1.0000000000 0.8272699827 0.6744919557 0.0855791153  Biso 1.0 S
S15 1.0000000000 0.3272699827 0.8255080443 0.5855791153  Biso 1.0 S
S16 1.0000000000 0.6727300173 0.1744919557 0.0855791153  Biso 1.0 S
Tb17 1.0000000000 0.4470318799 0.1218031506 0.7842710515  Biso 1.0 Tb
Tb18 1.0000000000 0.5529681201 0.8781968494 0.2842710515  Biso 1.0 Tb
Tb19 1.0000000000 0.0529681201 0.6218031506 0.7842710515  Biso 1.0 Tb
Tb20 1.0000000000 0.9470318799 0.3781968494 0.2842710515  Biso 1.0 Tb
