# AFLOW.org Repositories
# B1W1 #63 - (B1W1_ICSD_615689) - B1W1 [B1
data_B1W1
_pd_phase_name B1W1
_cell_length_a  4.5607152187
_cell_length_b  4.5607152187
_cell_length_c  3.1239952871
_cell_angle_alpha  90.0000000000
_cell_angle_beta  90.0000000000
_cell_angle_gamma  138.9799709143
_symmetry_space_group_name_H-M  'P1'
_symmetry_Int_Tables_Number  1
loop_
_symmetry_equiv_pos_site_id
_symmetry_equiv_pos_as_xyz
  1  x,y,z
loop_
 _atom_site_label
 _atom_site_occupancy
 _atom_site_fract_x
 _atom_site_fract_y
 _atom_site_fract_z
 _atom_site_thermal_displace_type
 _atom_site_B_iso_or_equiv
 _atom_site_type_symbol
B1 1.0000000000 0.4396077831 0.5603922169 0.7500000000  Biso 1.0 B
B2 1.0000000000 0.5603922169 0.4396077831 0.2500000000  Biso 1.0 B
W3 1.0000000000 0.1449135453 0.8550864547 0.7500000000  Biso 1.0 W
W4 1.0000000000 0.8550864547 0.1449135453 0.2500000000  Biso 1.0 W
