# AFLOW.org Repositories
# B2Ru1Y1 #62 - (B2Ru1Y1_ICSD_615399) - B2
data_B2Ru1Y1
_pd_phase_name B2Ru1Y1
_cell_length_a  5.3187639413
_cell_length_b  5.9382624941
_cell_length_c  6.3791478307
_cell_angle_alpha  90.0000000000
_cell_angle_beta  90.0000000000
_cell_angle_gamma  90.0000000000
_symmetry_space_group_name_H-M  'P1'
_symmetry_Int_Tables_Number  1
loop_
_symmetry_equiv_pos_site_id
_symmetry_equiv_pos_as_xyz
  1  x,y,z
loop_
 _atom_site_label
 _atom_site_occupancy
 _atom_site_fract_x
 _atom_site_fract_y
 _atom_site_fract_z
 _atom_site_thermal_displace_type
 _atom_site_B_iso_or_equiv
 _atom_site_type_symbol
B1 1.0000000000 0.0855023780 0.3736057008 0.5375368199  Biso 1.0 B
B2 1.0000000000 0.9144976220 0.1263942992 0.0375368199  Biso 1.0 B
B3 1.0000000000 0.5855023780 0.6263942992 0.4624631801  Biso 1.0 B
B4 1.0000000000 0.4144976220 0.8736057008 0.9624631801  Biso 1.0 B
B5 1.0000000000 0.9144976220 0.6263942992 0.4624631801  Biso 1.0 B
B6 1.0000000000 0.0855023780 0.8736057008 0.9624631801  Biso 1.0 B
B7 1.0000000000 0.4144976220 0.3736057008 0.5375368199  Biso 1.0 B
B8 1.0000000000 0.5855023780 0.1263942992 0.0375368199  Biso 1.0 B
Ru9 1.0000000000 0.2500000000 0.1844182507 0.8143473996  Biso 1.0 Ru
Ru10 1.0000000000 0.7500000000 0.3155817493 0.3143473996  Biso 1.0 Ru
Ru11 1.0000000000 0.7500000000 0.8155817493 0.1856526004  Biso 1.0 Ru
Ru12 1.0000000000 0.2500000000 0.6844182507 0.6856526004  Biso 1.0 Ru
Y13 1.0000000000 0.2500000000 0.0121446891 0.3381934986  Biso 1.0 Y
Y14 1.0000000000 0.7500000000 0.4878553109 0.8381934986  Biso 1.0 Y
Y15 1.0000000000 0.7500000000 0.9878553109 0.6618065014  Biso 1.0 Y
Y16 1.0000000000 0.2500000000 0.5121446891 0.1618065014  Biso 1.0 Y
