# AFLOW.org Repositories
# Bi5La3Sc1 #193 - (Bi5La3Sc1_ICSD_416609)
data_Bi5La3Sc1
_pd_phase_name Bi5La3Sc1
_cell_length_a  9.9181539141
_cell_length_b  9.9181539141
_cell_length_c  6.6425816741
_cell_angle_alpha  90.0000000000
_cell_angle_beta  90.0000000000
_cell_angle_gamma  120.0000000000
_symmetry_space_group_name_H-M  'P1'
_symmetry_Int_Tables_Number  1
loop_
_symmetry_equiv_pos_site_id
_symmetry_equiv_pos_as_xyz
  1  x,y,z
loop_
 _atom_site_label
 _atom_site_occupancy
 _atom_site_fract_x
 _atom_site_fract_y
 _atom_site_fract_z
 _atom_site_thermal_displace_type
 _atom_site_B_iso_or_equiv
 _atom_site_type_symbol
Bi1 1.0000000000 0.0000000000 0.7382771421 0.2500000000  Biso 1.0 Bi
Bi2 1.0000000000 0.2617228579 0.2617228579 0.2500000000  Biso 1.0 Bi
Bi3 1.0000000000 0.7383120580 0.0000000000 0.2500000000  Biso 1.0 Bi
Bi4 1.0000000000 0.0000000000 0.2617228579 0.7500000000  Biso 1.0 Bi
Bi5 1.0000000000 0.7382771421 0.7382771421 0.7500000000  Biso 1.0 Bi
Bi6 1.0000000000 0.2616879420 0.0000000000 0.7500000000  Biso 1.0 Bi
Bi7 1.0000000000 0.6666600024 0.3333200047 0.0000000000  Biso 1.0 Bi
Bi8 1.0000000000 0.3333399976 0.6666799953 0.5000000000  Biso 1.0 Bi
Bi9 1.0000000000 0.3333399976 0.6666799953 0.0000000000  Biso 1.0 Bi
Bi10 1.0000000000 0.6666600024 0.3333200047 0.5000000000  Biso 1.0 Bi
La11 1.0000000000 0.6194000770 0.6194000770 0.2500000000  Biso 1.0 La
La12 1.0000000000 0.3806401692 0.0000000000 0.2500000000  Biso 1.0 La
La13 1.0000000000 0.0000000000 0.3805999230 0.2500000000  Biso 1.0 La
La14 1.0000000000 0.3805999230 0.3805999230 0.7500000000  Biso 1.0 La
La15 1.0000000000 0.6193598308 0.0000000000 0.7500000000  Biso 1.0 La
La16 1.0000000000 0.0000000000 0.6194000770 0.7500000000  Biso 1.0 La
Sc17 1.0000000000 0.0000000000 0.0000000000 0.0000000000  Biso 1.0 Sc
Sc18 1.0000000000 0.0000000000 0.0000000000 0.5000000000  Biso 1.0 Sc
