# AFLOW.org Repositories
# Br1O4Y3 #63 - (Br1O4Y3_ICSD_419384) - Br
data_Br1O4Y3
_pd_phase_name Br1O4Y3
_cell_length_a  6.2540553211
_cell_length_b  6.2540553211
_cell_length_c  11.7228660302
_cell_angle_alpha  90.0000000000
_cell_angle_beta  90.0000000000
_cell_angle_gamma  141.6816569382
_symmetry_space_group_name_H-M  'P1'
_symmetry_Int_Tables_Number  1
loop_
_symmetry_equiv_pos_site_id
_symmetry_equiv_pos_as_xyz
  1  x,y,z
loop_
 _atom_site_label
 _atom_site_occupancy
 _atom_site_fract_x
 _atom_site_fract_y
 _atom_site_fract_z
 _atom_site_thermal_displace_type
 _atom_site_B_iso_or_equiv
 _atom_site_type_symbol
Br1 1.0000000000 0.0000000000 0.0000000000 0.0000000000  Biso 1.0 Br
Br2 1.0000000000 0.0000000000 0.0000000000 0.5000000000  Biso 1.0 Br
O3 1.0000000000 0.4335697537 0.5664302463 0.7500000000  Biso 1.0 O
O4 1.0000000000 0.5664302463 0.4335697537 0.2500000000  Biso 1.0 O
O5 1.0000000000 0.1907906712 0.8092093288 0.7500000000  Biso 1.0 O
O6 1.0000000000 0.8092093288 0.1907906712 0.2500000000  Biso 1.0 O
O7 1.0000000000 0.2701523509 0.7298476491 0.4103735919  Biso 1.0 O
O8 1.0000000000 0.7298476491 0.2701523509 0.9103735919  Biso 1.0 O
O9 1.0000000000 0.2701523509 0.7298476491 0.0896264081  Biso 1.0 O
O10 1.0000000000 0.7298476491 0.2701523509 0.5896264081  Biso 1.0 O
Y11 1.0000000000 0.6182640667 0.3817359333 0.7500000000  Biso 1.0 Y
Y12 1.0000000000 0.3817359333 0.6182640667 0.2500000000  Biso 1.0 Y
Y13 1.0000000000 0.3138938294 0.6861061706 0.8968235142  Biso 1.0 Y
Y14 1.0000000000 0.6861061706 0.3138938294 0.3968235142  Biso 1.0 Y
Y15 1.0000000000 0.3138938294 0.6861061706 0.6031764858  Biso 1.0 Y
Y16 1.0000000000 0.6861061706 0.3138938294 0.1031764858  Biso 1.0 Y
