# AFLOW.org Repositories
# Ce2N2Se1 #164 - (Ce2N2Se1_ICSD_421995) -
data_Ce2N2Se1
_pd_phase_name Ce2N2Se1
_cell_length_a  3.9505624689
_cell_length_b  3.9505624689
_cell_length_c  7.0270622809
_cell_angle_alpha  90.0000000000
_cell_angle_beta  90.0000000000
_cell_angle_gamma  120.0000000000
_symmetry_space_group_name_H-M  'P1'
_symmetry_Int_Tables_Number  1
loop_
_symmetry_equiv_pos_site_id
_symmetry_equiv_pos_as_xyz
  1  x,y,z
loop_
 _atom_site_label
 _atom_site_occupancy
 _atom_site_fract_x
 _atom_site_fract_y
 _atom_site_fract_z
 _atom_site_thermal_displace_type
 _atom_site_B_iso_or_equiv
 _atom_site_type_symbol
Ce1 1.0000000000 0.6666672631 0.3333345263 0.2974856195  Biso 1.0 Ce
Ce2 1.0000000000 0.3333327369 0.6666654737 0.7025143805  Biso 1.0 Ce
N3 1.0000000000 0.6666666515 0.3333333029 0.6273646687  Biso 1.0 N
N4 1.0000000000 0.3333333485 0.6666666971 0.3726353313  Biso 1.0 N
Se5 1.0000000000 0.0000000000 0.0000000000 0.0000000000  Biso 1.0 Se
