# AFLOW.org Repositories
# Cs1I3Sn1 #127 - (Cs1I3Sn1_ICSD_262925) -
data_Cs1I3Sn1
_pd_phase_name Cs1I3Sn1
_cell_length_a  8.9176717466
_cell_length_b  8.9176717466
_cell_length_c  6.3909624519
_cell_angle_alpha  90.0000000000
_cell_angle_beta  90.0000000000
_cell_angle_gamma  90.0000000000
_symmetry_space_group_name_H-M  'P1'
_symmetry_Int_Tables_Number  1
loop_
_symmetry_equiv_pos_site_id
_symmetry_equiv_pos_as_xyz
  1  x,y,z
loop_
 _atom_site_label
 _atom_site_occupancy
 _atom_site_fract_x
 _atom_site_fract_y
 _atom_site_fract_z
 _atom_site_thermal_displace_type
 _atom_site_B_iso_or_equiv
 _atom_site_type_symbol
Cs1 1.0000000000 0.5000000000 0.0000000000 0.0000000000  Biso 1.0 Cs
Cs2 1.0000000000 0.0000000000 0.5000000000 0.0000000000  Biso 1.0 Cs
I3 1.0000000000 0.0000000000 0.0000000000 0.0000000000  Biso 1.0 I
I4 1.0000000000 0.5000000000 0.5000000000 0.0000000000  Biso 1.0 I
I5 1.0000000000 0.7871592472 0.2871592472 0.5000000000  Biso 1.0 I
I6 1.0000000000 0.2128407528 0.7128407528 0.5000000000  Biso 1.0 I
I7 1.0000000000 0.7128407528 0.7871592472 0.5000000000  Biso 1.0 I
I8 1.0000000000 0.2871592472 0.2128407528 0.5000000000  Biso 1.0 I
Sn9 1.0000000000 0.0000000000 0.0000000000 0.5000000000  Biso 1.0 Sn
Sn10 1.0000000000 0.5000000000 0.5000000000 0.5000000000  Biso 1.0 Sn
