# AFLOW.org Repositories
# Cu2Li1P2 #139 - (Cu2Li1P2_ICSD_181810) -
data_Cu2Li1P2
_pd_phase_name Cu2Li1P2
_cell_length_a  5.5182485892
_cell_length_b  5.5182485892
_cell_length_c  5.5182485892
_cell_angle_alpha  138.6479127793
_cell_angle_beta  138.6479127793
_cell_angle_gamma  59.9121251149
_symmetry_space_group_name_H-M  'P1'
_symmetry_Int_Tables_Number  1
loop_
_symmetry_equiv_pos_site_id
_symmetry_equiv_pos_as_xyz
  1  x,y,z
loop_
 _atom_site_label
 _atom_site_occupancy
 _atom_site_fract_x
 _atom_site_fract_y
 _atom_site_fract_z
 _atom_site_thermal_displace_type
 _atom_site_B_iso_or_equiv
 _atom_site_type_symbol
Cu1 1.0000000000 0.7500000000 0.2500000000 0.5000000000  Biso 1.0 Cu
Cu2 1.0000000000 0.2500000000 0.7500000000 0.5000000000  Biso 1.0 Cu
Li3 1.0000000000 0.0000000000 0.0000000000 0.0000000000  Biso 1.0 Li
P4 1.0000000000 0.3878080173 0.3878080173 0.0000000000  Biso 1.0 P
P5 1.0000000000 0.6121919827 0.6121919827 0.0000000000  Biso 1.0 P
