# AFLOW.org Repositories
# Dy1Pt2Si2 #129.2 - (Dy1Pt2Si2_ICSD_60456
data_Dy1Pt2Si2
_pd_phase_name Dy1Pt2Si2
_cell_length_a  4.1952984047
_cell_length_b  4.1952984047
_cell_length_c  9.7565472333
_cell_angle_alpha  90.0000000000
_cell_angle_beta  90.0000000000
_cell_angle_gamma  90.0000000000
_symmetry_space_group_name_H-M  'P1'
_symmetry_Int_Tables_Number  1
loop_
_symmetry_equiv_pos_site_id
_symmetry_equiv_pos_as_xyz
  1  x,y,z
loop_
 _atom_site_label
 _atom_site_occupancy
 _atom_site_fract_x
 _atom_site_fract_y
 _atom_site_fract_z
 _atom_site_thermal_displace_type
 _atom_site_B_iso_or_equiv
 _atom_site_type_symbol
Dy1 1.0000000000 0.2500000000 0.2500000000 0.7469280787  Biso 1.0 Dy
Dy2 1.0000000000 0.7500000000 0.7500000000 0.2530719213  Biso 1.0 Dy
Pt3 1.0000000000 0.7500000000 0.2500000000 0.0000000000  Biso 1.0 Pt
Pt4 1.0000000000 0.2500000000 0.7500000000 0.0000000000  Biso 1.0 Pt
Pt5 1.0000000000 0.2500000000 0.2500000000 0.3765299833  Biso 1.0 Pt
Pt6 1.0000000000 0.7500000000 0.7500000000 0.6234700167  Biso 1.0 Pt
Si7 1.0000000000 0.7500000000 0.2500000000 0.5000000000  Biso 1.0 Si
Si8 1.0000000000 0.2500000000 0.7500000000 0.5000000000  Biso 1.0 Si
Si9 1.0000000000 0.2500000000 0.2500000000 0.1323312229  Biso 1.0 Si
Si10 1.0000000000 0.7500000000 0.7500000000 0.8676687771  Biso 1.0 Si
