# AFLOW.org Repositories
# Er1Ge2Rh2 #139 - (Er1Ge2Rh2_ICSD_630646)
data_Er1Ge2Rh2
_pd_phase_name Er1Ge2Rh2
_cell_length_a  5.9198462736
_cell_length_b  5.9198462736
_cell_length_c  5.9198462736
_cell_angle_alpha  139.3281637354
_cell_angle_beta  139.3281637354
_cell_angle_gamma  58.8748212716
_symmetry_space_group_name_H-M  'P1'
_symmetry_Int_Tables_Number  1
loop_
_symmetry_equiv_pos_site_id
_symmetry_equiv_pos_as_xyz
  1  x,y,z
loop_
 _atom_site_label
 _atom_site_occupancy
 _atom_site_fract_x
 _atom_site_fract_y
 _atom_site_fract_z
 _atom_site_thermal_displace_type
 _atom_site_B_iso_or_equiv
 _atom_site_type_symbol
Er1 1.0000000000 0.0000000000 0.0000000000 0.0000000000  Biso 1.0 Er
Ge2 1.0000000000 0.6211743473 0.6211743473 0.0000000000  Biso 1.0 Ge
Ge3 1.0000000000 0.3788256527 0.3788256527 0.0000000000  Biso 1.0 Ge
Rh4 1.0000000000 0.7500000000 0.2500000000 0.5000000000  Biso 1.0 Rh
Rh5 1.0000000000 0.2500000000 0.7500000000 0.5000000000  Biso 1.0 Rh
