# AFLOW.org Repositories
# F3La1 #59.2 - (F3La1_ICSD_167553) - F3La
data_F3La1
_pd_phase_name F3La1
_cell_length_a  4.1173027293
_cell_length_b  5.2037834205
_cell_length_c  5.2166379838
_cell_angle_alpha  90.0000000000
_cell_angle_beta  90.0000000000
_cell_angle_gamma  90.0000000000
_symmetry_space_group_name_H-M  'P1'
_symmetry_Int_Tables_Number  1
loop_
_symmetry_equiv_pos_site_id
_symmetry_equiv_pos_as_xyz
  1  x,y,z
loop_
 _atom_site_label
 _atom_site_occupancy
 _atom_site_fract_x
 _atom_site_fract_y
 _atom_site_fract_z
 _atom_site_thermal_displace_type
 _atom_site_B_iso_or_equiv
 _atom_site_type_symbol
F1 1.0000000000 0.7500000000 0.0000000000 0.8505835458  Biso 1.0 F
F2 1.0000000000 0.7500000000 0.4993921412 0.8505835458  Biso 1.0 F
F3 1.0000000000 0.2500000000 0.0000000000 0.1494164542  Biso 1.0 F
F4 1.0000000000 0.2500000000 0.5006078588 0.1494164542  Biso 1.0 F
F5 1.0000000000 0.7500000000 0.7500000000 0.4236589185  Biso 1.0 F
F6 1.0000000000 0.2500000000 0.2500000000 0.5763410815  Biso 1.0 F
La7 1.0000000000 0.2500000000 0.7500000000 0.7469514760  Biso 1.0 La
La8 1.0000000000 0.7500000000 0.2500000000 0.2530485240  Biso 1.0 La
