# AFLOW.org Repositories
# Ge1N2Sr2 #64 - (Ge1N2Sr2_ICSD_153302) - 
data_Ge1N2Sr2
_pd_phase_name Ge1N2Sr2
_cell_length_a  6.3548654522
_cell_length_b  6.3548654522
_cell_length_c  12.2656332456
_cell_angle_alpha  90.0000000000
_cell_angle_beta  90.0000000000
_cell_angle_gamma  129.1194019368
_symmetry_space_group_name_H-M  'P1'
_symmetry_Int_Tables_Number  1
loop_
_symmetry_equiv_pos_site_id
_symmetry_equiv_pos_as_xyz
  1  x,y,z
loop_
 _atom_site_label
 _atom_site_occupancy
 _atom_site_fract_x
 _atom_site_fract_y
 _atom_site_fract_z
 _atom_site_thermal_displace_type
 _atom_site_B_iso_or_equiv
 _atom_site_type_symbol
Ge1 1.0000000000 0.2398523341 0.7601476659 0.8197236681  Biso 1.0 Ge
Ge2 1.0000000000 0.2601476659 0.7398523341 0.3197236681  Biso 1.0 Ge
Ge3 1.0000000000 0.7398523341 0.2601476659 0.6802763319  Biso 1.0 Ge
Ge4 1.0000000000 0.7601476659 0.2398523341 0.1802763319  Biso 1.0 Ge
N5 1.0000000000 0.0786790196 0.9213209804 0.8584758606  Biso 1.0 N
N6 1.0000000000 0.4213209804 0.5786790196 0.3584758606  Biso 1.0 N
N7 1.0000000000 0.5786790196 0.4213209804 0.6415241394  Biso 1.0 N
N8 1.0000000000 0.9213209804 0.0786790196 0.1415241394  Biso 1.0 N
N9 1.0000000000 0.3402514468 0.6597485532 0.9405268620  Biso 1.0 N
N10 1.0000000000 0.1597485532 0.8402514468 0.4405268620  Biso 1.0 N
N11 1.0000000000 0.8402514468 0.1597485532 0.5594731380  Biso 1.0 N
N12 1.0000000000 0.6597485532 0.3402514468 0.0594731380  Biso 1.0 N
Sr13 1.0000000000 0.0478680370 0.9521319630 0.6422403479  Biso 1.0 Sr
Sr14 1.0000000000 0.4521319630 0.5478680370 0.1422403479  Biso 1.0 Sr
Sr15 1.0000000000 0.5478680370 0.4521319630 0.8577596521  Biso 1.0 Sr
Sr16 1.0000000000 0.9521319630 0.0478680370 0.3577596521  Biso 1.0 Sr
Sr17 1.0000000000 0.3558788995 0.6441211005 0.5579980199  Biso 1.0 Sr
Sr18 1.0000000000 0.1441211005 0.8558788995 0.0579980199  Biso 1.0 Sr
Sr19 1.0000000000 0.8558788995 0.1441211005 0.9420019801  Biso 1.0 Sr
Sr20 1.0000000000 0.6441211005 0.3558788995 0.4420019801  Biso 1.0 Sr
