# AFLOW.org Repositories
# Ge2Hf3 #127 - (Ge2Hf3_ICSD_636549) - Ge2
data_Ge2Hf3
_pd_phase_name Ge2Hf3
_cell_length_a  7.1612730279
_cell_length_b  7.1612730279
_cell_length_c  3.6984332524
_cell_angle_alpha  90.0000000000
_cell_angle_beta  90.0000000000
_cell_angle_gamma  90.0000000000
_symmetry_space_group_name_H-M  'P1'
_symmetry_Int_Tables_Number  1
loop_
_symmetry_equiv_pos_site_id
_symmetry_equiv_pos_as_xyz
  1  x,y,z
loop_
 _atom_site_label
 _atom_site_occupancy
 _atom_site_fract_x
 _atom_site_fract_y
 _atom_site_fract_z
 _atom_site_thermal_displace_type
 _atom_site_B_iso_or_equiv
 _atom_site_type_symbol
Ge1 1.0000000000 0.6311908767 0.1311908767 0.0000000000  Biso 1.0 Ge
Ge2 1.0000000000 0.3688091233 0.8688091233 0.0000000000  Biso 1.0 Ge
Ge3 1.0000000000 0.8688091233 0.6311908767 0.0000000000  Biso 1.0 Ge
Ge4 1.0000000000 0.1311908767 0.3688091233 0.0000000000  Biso 1.0 Ge
Hf5 1.0000000000 0.0000000000 0.0000000000 0.0000000000  Biso 1.0 Hf
Hf6 1.0000000000 0.5000000000 0.5000000000 0.0000000000  Biso 1.0 Hf
Hf7 1.0000000000 0.1698320197 0.6698320197 0.5000000000  Biso 1.0 Hf
Hf8 1.0000000000 0.8301679803 0.3301679803 0.5000000000  Biso 1.0 Hf
Hf9 1.0000000000 0.3301679803 0.1698320197 0.5000000000  Biso 1.0 Hf
Hf10 1.0000000000 0.6698320197 0.8301679803 0.5000000000  Biso 1.0 Hf
