# AFLOW.org Repositories
# Ho1In1Zn1 #194 - (Ho1In1Zn1_ICSD_639346)
data_Ho1In1Zn1
_pd_phase_name Ho1In1Zn1
_cell_length_a  4.6834986413
_cell_length_b  4.6834986413
_cell_length_c  7.0989748006
_cell_angle_alpha  90.0000000000
_cell_angle_beta  90.0000000000
_cell_angle_gamma  120.0000000000
_symmetry_space_group_name_H-M  'P1'
_symmetry_Int_Tables_Number  1
loop_
_symmetry_equiv_pos_site_id
_symmetry_equiv_pos_as_xyz
  1  x,y,z
loop_
 _atom_site_label
 _atom_site_occupancy
 _atom_site_fract_x
 _atom_site_fract_y
 _atom_site_fract_z
 _atom_site_thermal_displace_type
 _atom_site_B_iso_or_equiv
 _atom_site_type_symbol
Ho1 1.0000000000 0.0000000000 0.0000000000 0.0000000000  Biso 1.0 Ho
Ho2 1.0000000000 0.0000000000 0.0000000000 0.5000000000  Biso 1.0 Ho
In3 1.0000000000 0.6666500891 0.3333001782 0.2500000000  Biso 1.0 In
In4 1.0000000000 0.3333499109 0.6666998218 0.7500000000  Biso 1.0 In
Zn5 1.0000000000 0.6666607073 0.3333214146 0.7500000000  Biso 1.0 Zn
Zn6 1.0000000000 0.3333392927 0.6666785854 0.2500000000  Biso 1.0 Zn
