# AFLOW.org Repositories
# N1Nb1 #194 - (N1Nb1_ICSD_644540) - N1Nb1
data_N1Nb1
_pd_phase_name N1Nb1
_cell_length_a  2.9998330737
_cell_length_b  2.9998330737
_cell_length_c  11.3329032421
_cell_angle_alpha  90.0000000000
_cell_angle_beta  90.0000000000
_cell_angle_gamma  120.0000000000
_symmetry_space_group_name_H-M  'P1'
_symmetry_Int_Tables_Number  1
loop_
_symmetry_equiv_pos_site_id
_symmetry_equiv_pos_as_xyz
  1  x,y,z
loop_
 _atom_site_label
 _atom_site_occupancy
 _atom_site_fract_x
 _atom_site_fract_y
 _atom_site_fract_z
 _atom_site_thermal_displace_type
 _atom_site_B_iso_or_equiv
 _atom_site_type_symbol
N1 1.0000000000 0.0000000000 0.0000000000 0.0000000000  Biso 1.0 N
N2 1.0000000000 0.0000000000 0.0000000000 0.5000000000  Biso 1.0 N
N3 1.0000000000 0.6666654219 0.3333308439 0.7500000000  Biso 1.0 N
N4 1.0000000000 0.3333345781 0.6666691561 0.2500000000  Biso 1.0 N
Nb5 1.0000000000 0.6666727553 0.3333455106 0.1220394303  Biso 1.0 Nb
Nb6 1.0000000000 0.3333272447 0.6666544894 0.6220394303  Biso 1.0 Nb
Nb7 1.0000000000 0.3333272447 0.6666544894 0.8779605697  Biso 1.0 Nb
Nb8 1.0000000000 0.6666727553 0.3333455106 0.3779605697  Biso 1.0 Nb
