# AFLOW.org Repositories
# Os2P2Sr1 #139 - (Os2P2Sr1_ICSD_602096) -
data_Os2P2Sr1
_pd_phase_name Os2P2Sr1
_cell_length_a  6.3232899160
_cell_length_b  6.3232899160
_cell_length_c  6.3232899160
_cell_angle_alpha  142.2802384826
_cell_angle_beta  142.2802384826
_cell_angle_gamma  54.4068936539
_symmetry_space_group_name_H-M  'P1'
_symmetry_Int_Tables_Number  1
loop_
_symmetry_equiv_pos_site_id
_symmetry_equiv_pos_as_xyz
  1  x,y,z
loop_
 _atom_site_label
 _atom_site_occupancy
 _atom_site_fract_x
 _atom_site_fract_y
 _atom_site_fract_z
 _atom_site_thermal_displace_type
 _atom_site_B_iso_or_equiv
 _atom_site_type_symbol
Os1 1.0000000000 0.7500000000 0.2500000000 0.5000000000  Biso 1.0 Os
Os2 1.0000000000 0.2500000000 0.7500000000 0.5000000000  Biso 1.0 Os
P3 1.0000000000 0.6490624226 0.6490624226 0.0000000000  Biso 1.0 P
P4 1.0000000000 0.3509375774 0.3509375774 0.0000000000  Biso 1.0 P
Sr5 1.0000000000 0.0000000000 0.0000000000 0.0000000000  Biso 1.0 Sr
