# AFLOW.org Repositories
# Pt3Sc2Si2 #55 - (Pt3Sc2Si2_ICSD_247425) 
data_Pt3Sc2Si2
_pd_phase_name Pt3Sc2Si2
_cell_length_a  4.0795395439
_cell_length_b  6.4562790466
_cell_length_c  8.7291576636
_cell_angle_alpha  90.0000000000
_cell_angle_beta  90.0000000000
_cell_angle_gamma  90.0000000000
_symmetry_space_group_name_H-M  'P1'
_symmetry_Int_Tables_Number  1
loop_
_symmetry_equiv_pos_site_id
_symmetry_equiv_pos_as_xyz
  1  x,y,z
loop_
 _atom_site_label
 _atom_site_occupancy
 _atom_site_fract_x
 _atom_site_fract_y
 _atom_site_fract_z
 _atom_site_thermal_displace_type
 _atom_site_B_iso_or_equiv
 _atom_site_type_symbol
Pt1 1.0000000000 0.5000000000 0.1903442090 0.5880852854  Biso 1.0 Pt
Pt2 1.0000000000 0.5000000000 0.8096557910 0.4119147146  Biso 1.0 Pt
Pt3 1.0000000000 0.5000000000 0.3096557910 0.0880852854  Biso 1.0 Pt
Pt4 1.0000000000 0.5000000000 0.6903442090 0.9119147146  Biso 1.0 Pt
Pt5 1.0000000000 0.0000000000 0.0000000000 0.0000000000  Biso 1.0 Pt
Pt6 1.0000000000 0.0000000000 0.5000000000 0.5000000000  Biso 1.0 Pt
Sc7 1.0000000000 0.0000000000 0.3894143177 0.8300414423  Biso 1.0 Sc
Sc8 1.0000000000 0.0000000000 0.6105856823 0.1699585577  Biso 1.0 Sc
Sc9 1.0000000000 0.0000000000 0.1105856823 0.3300414423  Biso 1.0 Sc
Sc10 1.0000000000 0.0000000000 0.8894143177 0.6699585577  Biso 1.0 Sc
Si11 1.0000000000 0.5000000000 0.0736607218 0.8521678076  Biso 1.0 Si
Si12 1.0000000000 0.5000000000 0.9263392782 0.1478321924  Biso 1.0 Si
Si13 1.0000000000 0.5000000000 0.4263392782 0.3521678076  Biso 1.0 Si
Si14 1.0000000000 0.5000000000 0.5736607218 0.6478321924  Biso 1.0 Si
