# AFLOW.org Repositories
# Pt3Th7 #186 - (Pt3Th7_ICSD_150671) - Pt3
data_Pt3Th7
_pd_phase_name Pt3Th7
_cell_length_a  10.3883405389
_cell_length_b  10.3883405389
_cell_length_c  6.5729006616
_cell_angle_alpha  90.0000000000
_cell_angle_beta  90.0000000000
_cell_angle_gamma  120.0000000000
_symmetry_space_group_name_H-M  'P1'
_symmetry_Int_Tables_Number  1
loop_
_symmetry_equiv_pos_site_id
_symmetry_equiv_pos_as_xyz
  1  x,y,z
loop_
 _atom_site_label
 _atom_site_occupancy
 _atom_site_fract_x
 _atom_site_fract_y
 _atom_site_fract_z
 _atom_site_thermal_displace_type
 _atom_site_B_iso_or_equiv
 _atom_site_type_symbol
Pt1 1.0000000000 0.8115684783 0.1884315217 0.0630156841  Biso 1.0 Pt
Pt2 1.0000000000 0.8115678238 0.6231345019 0.0630172695  Biso 1.0 Pt
Pt3 1.0000000000 0.3768654981 0.1884321762 0.0630172695  Biso 1.0 Pt
Pt4 1.0000000000 0.1884315217 0.8115684783 0.5630156841  Biso 1.0 Pt
Pt5 1.0000000000 0.1884321762 0.3768654981 0.5630172695  Biso 1.0 Pt
Pt6 1.0000000000 0.6231345019 0.8115678238 0.5630172695  Biso 1.0 Pt
Th7 1.0000000000 0.3333321654 0.6666678346 0.8287314422  Biso 1.0 Th
Th8 1.0000000000 0.6666678346 0.3333321654 0.3287314422  Biso 1.0 Th
Th9 1.0000000000 0.1270614369 0.8729385631 0.9903645295  Biso 1.0 Th
Th10 1.0000000000 0.1270633733 0.2541249260 0.9903655279  Biso 1.0 Th
Th11 1.0000000000 0.7458750740 0.8729366267 0.9903655279  Biso 1.0 Th
Th12 1.0000000000 0.8729385631 0.1270614369 0.4903645295  Biso 1.0 Th
Th13 1.0000000000 0.8729366267 0.7458750740 0.4903655279  Biso 1.0 Th
Th14 1.0000000000 0.2541249260 0.1270633733 0.4903655279  Biso 1.0 Th
Th15 1.0000000000 0.5440739972 0.4559260028 0.7843741707  Biso 1.0 Th
Th16 1.0000000000 0.5440744770 0.0881465124 0.7843742894  Biso 1.0 Th
Th17 1.0000000000 0.9118534876 0.4559255230 0.7843742894  Biso 1.0 Th
Th18 1.0000000000 0.4559260028 0.5440739972 0.2843741707  Biso 1.0 Th
Th19 1.0000000000 0.4559255230 0.9118534876 0.2843742894  Biso 1.0 Th
Th20 1.0000000000 0.0881465124 0.5440744770 0.2843742894  Biso 1.0 Th
