# AFLOW.org Repositories
# Rh1Ti2 #139 - (Rh1Ti2_ICSD_650481) - Rh1
data_Rh1Ti2
_pd_phase_name Rh1Ti2
_cell_length_a  5.5354814885
_cell_length_b  5.5354814885
_cell_length_c  5.5354814885
_cell_angle_alpha  147.6961396904
_cell_angle_beta  147.6961396904
_cell_angle_gamma  46.3341278075
_symmetry_space_group_name_H-M  'P1'
_symmetry_Int_Tables_Number  1
loop_
_symmetry_equiv_pos_site_id
_symmetry_equiv_pos_as_xyz
  1  x,y,z
loop_
 _atom_site_label
 _atom_site_occupancy
 _atom_site_fract_x
 _atom_site_fract_y
 _atom_site_fract_z
 _atom_site_thermal_displace_type
 _atom_site_B_iso_or_equiv
 _atom_site_type_symbol
Rh1 1.0000000000 0.0000000000 0.0000000000 0.0000000000  Biso 1.0 Rh
Ti2 1.0000000000 0.6596153382 0.6596153382 0.0000000000  Biso 1.0 Ti
Ti3 1.0000000000 0.3403846618 0.3403846618 0.0000000000  Biso 1.0 Ti
