# AFLOW.org Repositories
# Rh1Tb1Zn1 #62 - (Rh1Tb1Zn1_ICSD_419896) 
data_Rh1Tb1Zn1
_pd_phase_name Rh1Tb1Zn1
_cell_length_a  4.0177718557
_cell_length_b  6.9158483996
_cell_length_c  8.0768969084
_cell_angle_alpha  90.0000000000
_cell_angle_beta  90.0000000000
_cell_angle_gamma  90.0000000000
_symmetry_space_group_name_H-M  'P1'
_symmetry_Int_Tables_Number  1
loop_
_symmetry_equiv_pos_site_id
_symmetry_equiv_pos_as_xyz
  1  x,y,z
loop_
 _atom_site_label
 _atom_site_occupancy
 _atom_site_fract_x
 _atom_site_fract_y
 _atom_site_fract_z
 _atom_site_thermal_displace_type
 _atom_site_B_iso_or_equiv
 _atom_site_type_symbol
Rh1 1.0000000000 0.2500000000 0.2566055056 0.6206950202  Biso 1.0 Rh
Rh2 1.0000000000 0.7500000000 0.2433944944 0.1206950202  Biso 1.0 Rh
Rh3 1.0000000000 0.7500000000 0.7433944944 0.3793049798  Biso 1.0 Rh
Rh4 1.0000000000 0.2500000000 0.7566055056 0.8793049798  Biso 1.0 Rh
Tb5 1.0000000000 0.2500000000 0.0385447246 0.3153931418  Biso 1.0 Tb
Tb6 1.0000000000 0.7500000000 0.4614552754 0.8153931418  Biso 1.0 Tb
Tb7 1.0000000000 0.7500000000 0.9614552754 0.6846068582  Biso 1.0 Tb
Tb8 1.0000000000 0.2500000000 0.5385447246 0.1846068582  Biso 1.0 Tb
Zn9 1.0000000000 0.2500000000 0.6356010880 0.5630334071  Biso 1.0 Zn
Zn10 1.0000000000 0.7500000000 0.8643989120 0.0630334071  Biso 1.0 Zn
Zn11 1.0000000000 0.7500000000 0.3643989120 0.4369665929  Biso 1.0 Zn
Zn12 1.0000000000 0.2500000000 0.1356010880 0.9369665929  Biso 1.0 Zn
