# AFLOW.org Repositories
# Tb6Zn23 #225 - (Tb6Zn23_ICSD_652986) - T
data_Tb6Zn23
_pd_phase_name Tb6Zn23
_cell_length_a  8.9325025984
_cell_length_b  8.9325025984
_cell_length_c  8.9325025984
_cell_angle_alpha  60.0000000000
_cell_angle_beta  60.0000000000
_cell_angle_gamma  60.0000000000
_symmetry_space_group_name_H-M  'P1'
_symmetry_Int_Tables_Number  1
loop_
_symmetry_equiv_pos_site_id
_symmetry_equiv_pos_as_xyz
  1  x,y,z
loop_
 _atom_site_label
 _atom_site_occupancy
 _atom_site_fract_x
 _atom_site_fract_y
 _atom_site_fract_z
 _atom_site_thermal_displace_type
 _atom_site_B_iso_or_equiv
 _atom_site_type_symbol
Tb1 1.0000000000 0.2925432329 0.7074567671 0.2925432329  Biso 1.0 Tb
Tb2 1.0000000000 0.7074567671 0.2925432329 0.7074567671  Biso 1.0 Tb
Tb3 1.0000000000 0.7074567671 0.2925432329 0.2925432329  Biso 1.0 Tb
Tb4 1.0000000000 0.2925432329 0.7074567671 0.7074567671  Biso 1.0 Tb
Tb5 1.0000000000 0.7074567671 0.7074567671 0.2925432329  Biso 1.0 Tb
Tb6 1.0000000000 0.2925432329 0.2925432329 0.7074567671  Biso 1.0 Tb
Zn7 1.0000000000 0.0000000000 0.0000000000 0.0000000000  Biso 1.0 Zn
Zn8 1.0000000000 0.5000000000 0.0000000000 0.5000000000  Biso 1.0 Zn
Zn9 1.0000000000 0.0000000000 0.5000000000 0.0000000000  Biso 1.0 Zn
Zn10 1.0000000000 0.0000000000 0.5000000000 0.5000000000  Biso 1.0 Zn
Zn11 1.0000000000 0.5000000000 0.0000000000 0.0000000000  Biso 1.0 Zn
Zn12 1.0000000000 0.0000000000 0.0000000000 0.5000000000  Biso 1.0 Zn
Zn13 1.0000000000 0.5000000000 0.5000000000 0.0000000000  Biso 1.0 Zn
Zn14 1.0000000000 0.8763067075 0.8763067075 0.3710798776  Biso 1.0 Zn
Zn15 1.0000000000 0.8763067075 0.8763067075 0.8763067075  Biso 1.0 Zn
Zn16 1.0000000000 0.8763067075 0.3710798776 0.8763067075  Biso 1.0 Zn
Zn17 1.0000000000 0.3710798776 0.8763067075 0.8763067075  Biso 1.0 Zn
Zn18 1.0000000000 0.1236932925 0.1236932925 0.1236932925  Biso 1.0 Zn
Zn19 1.0000000000 0.1236932925 0.1236932925 0.6289201224  Biso 1.0 Zn
Zn20 1.0000000000 0.1236932925 0.6289201224 0.1236932925  Biso 1.0 Zn
Zn21 1.0000000000 0.6289201224 0.1236932925 0.1236932925  Biso 1.0 Zn
Zn22 1.0000000000 0.6725604991 0.6725604991 0.9823185028  Biso 1.0 Zn
Zn23 1.0000000000 0.6725604991 0.6725604991 0.6725604991  Biso 1.0 Zn
Zn24 1.0000000000 0.6725604991 0.9823185028 0.6725604991  Biso 1.0 Zn
Zn25 1.0000000000 0.9823185028 0.6725604991 0.6725604991  Biso 1.0 Zn
Zn26 1.0000000000 0.3274395009 0.3274395009 0.3274395009  Biso 1.0 Zn
Zn27 1.0000000000 0.3274395009 0.3274395009 0.0176814972  Biso 1.0 Zn
Zn28 1.0000000000 0.3274395009 0.0176814972 0.3274395009  Biso 1.0 Zn
Zn29 1.0000000000 0.0176814972 0.3274395009 0.3274395009  Biso 1.0 Zn
