# AFLOW.org Repositories
# Zn1Zr2 #139 - (Zn1Zr2_ICSD_653511) - Zn1
data_Zn1Zr2
_pd_phase_name Zn1Zr2
_cell_length_a  6.1218919801
_cell_length_b  6.1218919801
_cell_length_c  6.1218919801
_cell_angle_alpha  148.8169579491
_cell_angle_beta  148.8169579491
_cell_angle_gamma  44.6808045120
_symmetry_space_group_name_H-M  'P1'
_symmetry_Int_Tables_Number  1
loop_
_symmetry_equiv_pos_site_id
_symmetry_equiv_pos_as_xyz
  1  x,y,z
loop_
 _atom_site_label
 _atom_site_occupancy
 _atom_site_fract_x
 _atom_site_fract_y
 _atom_site_fract_z
 _atom_site_thermal_displace_type
 _atom_site_B_iso_or_equiv
 _atom_site_type_symbol
Zn1 1.0000000000 0.0000000000 0.0000000000 0.0000000000  Biso 1.0 Zn
Zr2 1.0000000000 0.3440473389 0.3440473389 0.0000000000  Biso 1.0 Zr
Zr3 1.0000000000 0.6559526611 0.6559526611 0.0000000000  Biso 1.0 Zr
