# AFLOW.org Repositories
# Ag1La1Mg1 #189 - (Ag1La1Mg1_ICSD_657932)
data_Ag1La1Mg1
_pd_phase_name Ag1La1Mg1
_cell_length_a  7.8964130128
_cell_length_b  7.8964130128
_cell_length_c  4.4907685288
_cell_angle_alpha  90.0000000000
_cell_angle_beta  90.0000000000
_cell_angle_gamma  120.0000000000
_symmetry_space_group_name_H-M  'P1'
_symmetry_Int_Tables_Number  1
loop_
_symmetry_equiv_pos_site_id
_symmetry_equiv_pos_as_xyz
  1  x,y,z
loop_
 _atom_site_label
 _atom_site_occupancy
 _atom_site_fract_x
 _atom_site_fract_y
 _atom_site_fract_z
 _atom_site_thermal_displace_type
 _atom_site_B_iso_or_equiv
 _atom_site_type_symbol
Ag1 1.0000000000 0.6666605742 0.3333280159 0.0000000000  Biso 1.0 Ag
Ag2 1.0000000000 0.3333325583 0.6666719841 0.0000000000  Biso 1.0 Ag
Ag3 1.0000000000 0.0000000000 0.0000000000 0.5000000000  Biso 1.0 Ag
La4 1.0000000000 0.0000000000 0.4165136358 0.5000000000  Biso 1.0 La
La5 1.0000000000 0.5834863642 0.5834863642 0.5000000000  Biso 1.0 La
La6 1.0000000000 0.4165206463 0.0000000000 0.5000000000  Biso 1.0 La
Mg7 1.0000000000 0.0000000000 0.7639405036 0.0000000000  Biso 1.0 Mg
Mg8 1.0000000000 0.2360594964 0.2360594964 0.0000000000  Biso 1.0 Mg
Mg9 1.0000000000 0.7639426900 0.0000000000 0.0000000000  Biso 1.0 Mg
