# AFLOW.org Repositories
# Ag1Li1 #141.1 - (Ag1Li1_ICSD_247145) - A
data_Ag1Li1
_pd_phase_name Ag1Li1
_cell_length_a  5.0927011851
_cell_length_b  5.0927011851
_cell_length_c  5.0927011851
_cell_angle_alpha  134.0154632923
_cell_angle_beta  134.0154632923
_cell_angle_gamma  67.0638570480
_symmetry_space_group_name_H-M  'P1'
_symmetry_Int_Tables_Number  1
loop_
_symmetry_equiv_pos_site_id
_symmetry_equiv_pos_as_xyz
  1  x,y,z
loop_
 _atom_site_label
 _atom_site_occupancy
 _atom_site_fract_x
 _atom_site_fract_y
 _atom_site_fract_z
 _atom_site_thermal_displace_type
 _atom_site_B_iso_or_equiv
 _atom_site_type_symbol
Ag1 1.0000000000 0.0000000000 0.0000000000 0.0000000000  Biso 1.0 Ag
Ag2 1.0000000000 0.7500000000 0.2500000000 0.5000000000  Biso 1.0 Ag
Li3 1.0000000000 0.5000000000 0.5000000000 0.0000000000  Biso 1.0 Li
Li4 1.0000000000 0.2500000000 0.7500000000 0.5000000000  Biso 1.0 Li
