# AFLOW.org Repositories
# As1K1Mg1 #129.2 - (As1K1Mg1_ICSD_610753)
data_As1K1Mg1
_pd_phase_name As1K1Mg1
_cell_length_a  4.5756470657
_cell_length_b  4.5756470657
_cell_length_c  7.8647410956
_cell_angle_alpha  90.0000000000
_cell_angle_beta  90.0000000000
_cell_angle_gamma  90.0000000000
_symmetry_space_group_name_H-M  'P1'
_symmetry_Int_Tables_Number  1
loop_
_symmetry_equiv_pos_site_id
_symmetry_equiv_pos_as_xyz
  1  x,y,z
loop_
 _atom_site_label
 _atom_site_occupancy
 _atom_site_fract_x
 _atom_site_fract_y
 _atom_site_fract_z
 _atom_site_thermal_displace_type
 _atom_site_B_iso_or_equiv
 _atom_site_type_symbol
As1 1.0000000000 0.2500000000 0.2500000000 0.1918095087  Biso 1.0 As
As2 1.0000000000 0.7500000000 0.7500000000 0.8081904913  Biso 1.0 As
K3 1.0000000000 0.2500000000 0.2500000000 0.6441208020  Biso 1.0 K
K4 1.0000000000 0.7500000000 0.7500000000 0.3558791980  Biso 1.0 K
Mg5 1.0000000000 0.7500000000 0.2500000000 0.0000000000  Biso 1.0 Mg
Mg6 1.0000000000 0.2500000000 0.7500000000 0.0000000000  Biso 1.0 Mg
