# AFLOW.org Repositories
# As2Ca2Cd1 #36 - (As2Ca2Cd1_ICSD_422579) 
data_As2Ca2Cd1
_pd_phase_name As2Ca2Cd1
_cell_length_a  8.5575601656
_cell_length_b  8.5575601656
_cell_length_c  7.1797583311
_cell_angle_alpha  90.0000000000
_cell_angle_beta  90.0000000000
_cell_angle_gamma  150.6025308752
_symmetry_space_group_name_H-M  'P1'
_symmetry_Int_Tables_Number  1
loop_
_symmetry_equiv_pos_site_id
_symmetry_equiv_pos_as_xyz
  1  x,y,z
loop_
 _atom_site_label
 _atom_site_occupancy
 _atom_site_fract_x
 _atom_site_fract_y
 _atom_site_fract_z
 _atom_site_thermal_displace_type
 _atom_site_B_iso_or_equiv
 _atom_site_type_symbol
As1 1.0000000000 0.9353031891 0.0646968109 0.9855427290  Biso 1.0 As
As2 1.0000000000 0.0646968005 0.9353031995 0.4855439362  Biso 1.0 As
As3 1.0000000000 0.6812546480 0.3187453520 0.0000000000  Biso 1.0 As
As4 1.0000000000 0.3187453426 0.6812546574 0.4990592973  Biso 1.0 As
Ca5 1.0000000000 0.6996076507 0.3003923493 0.4305679374  Biso 1.0 Ca
Ca6 1.0000000000 0.3003921345 0.6996078655 0.9305669621  Biso 1.0 Ca
Ca7 1.0000000000 0.5324038307 0.4675961693 0.7728797978  Biso 1.0 Ca
Ca8 1.0000000000 0.4675962424 0.5324037576 0.2728798921  Biso 1.0 Ca
Cd9 1.0000000000 0.9006494474 0.0993505526 0.6075029875  Biso 1.0 Cd
Cd10 1.0000000000 0.0993507142 0.9006492858 0.1075037226  Biso 1.0 Cd
