# AFLOW.org Repositories
# Au1Ca1Cd1 #62 - (Au1Ca1Cd1_ICSD_420574) 
data_Au1Ca1Cd1
_pd_phase_name Au1Ca1Cd1
_cell_length_a  4.3731672050
_cell_length_b  7.4473658570
_cell_length_c  8.9258091959
_cell_angle_alpha  90.0000000000
_cell_angle_beta  90.0000000000
_cell_angle_gamma  90.0000000000
_symmetry_space_group_name_H-M  'P1'
_symmetry_Int_Tables_Number  1
loop_
_symmetry_equiv_pos_site_id
_symmetry_equiv_pos_as_xyz
  1  x,y,z
loop_
 _atom_site_label
 _atom_site_occupancy
 _atom_site_fract_x
 _atom_site_fract_y
 _atom_site_fract_z
 _atom_site_thermal_displace_type
 _atom_site_B_iso_or_equiv
 _atom_site_type_symbol
Au1 1.0000000000 0.2500000000 0.2462632922 0.6309742656  Biso 1.0 Au
Au2 1.0000000000 0.7500000000 0.2537367078 0.1309742656  Biso 1.0 Au
Au3 1.0000000000 0.7500000000 0.7537367078 0.3690257344  Biso 1.0 Au
Au4 1.0000000000 0.2500000000 0.7462632922 0.8690257344  Biso 1.0 Au
Ca5 1.0000000000 0.2500000000 0.0449949737 0.3188532213  Biso 1.0 Ca
Ca6 1.0000000000 0.7500000000 0.4550050263 0.8188532213  Biso 1.0 Ca
Ca7 1.0000000000 0.7500000000 0.9550050263 0.6811467787  Biso 1.0 Ca
Ca8 1.0000000000 0.2500000000 0.5449949737 0.1811467787  Biso 1.0 Ca
Cd9 1.0000000000 0.2500000000 0.1398231192 0.9407081018  Biso 1.0 Cd
Cd10 1.0000000000 0.7500000000 0.3601768808 0.4407081018  Biso 1.0 Cd
Cd11 1.0000000000 0.7500000000 0.8601768808 0.0592918982  Biso 1.0 Cd
Cd12 1.0000000000 0.2500000000 0.6398231192 0.5592918982  Biso 1.0 Cd
