# AFLOW.org Repositories
# B6Ru1Y2 #55 - (B6Ru1Y2_ICSD_603493) - B6
data_B6Ru1Y2
_pd_phase_name B6Ru1Y2
_cell_length_a  3.6705625998
_cell_length_b  9.1596649748
_cell_length_c  11.5309717796
_cell_angle_alpha  90.0000000000
_cell_angle_beta  90.0000000000
_cell_angle_gamma  90.0000000000
_symmetry_space_group_name_H-M  'P1'
_symmetry_Int_Tables_Number  1
loop_
_symmetry_equiv_pos_site_id
_symmetry_equiv_pos_as_xyz
  1  x,y,z
loop_
 _atom_site_label
 _atom_site_occupancy
 _atom_site_fract_x
 _atom_site_fract_y
 _atom_site_fract_z
 _atom_site_thermal_displace_type
 _atom_site_B_iso_or_equiv
 _atom_site_type_symbol
B1 1.0000000000 0.5000000000 0.0537431097 0.9326940846  Biso 1.0 B
B2 1.0000000000 0.5000000000 0.9462568903 0.0673059154  Biso 1.0 B
B3 1.0000000000 0.5000000000 0.4462568903 0.4326940846  Biso 1.0 B
B4 1.0000000000 0.5000000000 0.5537431097 0.5673059154  Biso 1.0 B
B5 1.0000000000 0.5000000000 0.2473248570 0.9197999722  Biso 1.0 B
B6 1.0000000000 0.5000000000 0.7526751430 0.0802000278  Biso 1.0 B
B7 1.0000000000 0.5000000000 0.2526751430 0.4197999722  Biso 1.0 B
B8 1.0000000000 0.5000000000 0.7473248570 0.5802000278  Biso 1.0 B
B9 1.0000000000 0.5000000000 0.2906170880 0.7665436818  Biso 1.0 B
B10 1.0000000000 0.5000000000 0.7093829120 0.2334563182  Biso 1.0 B
B11 1.0000000000 0.5000000000 0.2093829120 0.2665436818  Biso 1.0 B
B12 1.0000000000 0.5000000000 0.7906170880 0.7334563182  Biso 1.0 B
B13 1.0000000000 0.5000000000 0.1321233436 0.6856659766  Biso 1.0 B
B14 1.0000000000 0.5000000000 0.8678766564 0.3143340234  Biso 1.0 B
B15 1.0000000000 0.5000000000 0.3678766564 0.1856659766  Biso 1.0 B
B16 1.0000000000 0.5000000000 0.6321233436 0.8143340234  Biso 1.0 B
B17 1.0000000000 0.5000000000 0.4836241250 0.7127911450  Biso 1.0 B
B18 1.0000000000 0.5000000000 0.5163758750 0.2872088550  Biso 1.0 B
B19 1.0000000000 0.5000000000 0.0163758750 0.2127911450  Biso 1.0 B
B20 1.0000000000 0.5000000000 0.9836241250 0.7872088550  Biso 1.0 B
B21 1.0000000000 0.5000000000 0.1109746982 0.5306560984  Biso 1.0 B
B22 1.0000000000 0.5000000000 0.8890253018 0.4693439016  Biso 1.0 B
B23 1.0000000000 0.5000000000 0.3890253018 0.0306560984  Biso 1.0 B
B24 1.0000000000 0.5000000000 0.6109746982 0.9693439016  Biso 1.0 B
Ru25 1.0000000000 0.0000000000 0.1378195754 0.8213123938  Biso 1.0 Ru
Ru26 1.0000000000 0.0000000000 0.8621804246 0.1786876062  Biso 1.0 Ru
Ru27 1.0000000000 0.0000000000 0.3621804246 0.3213123938  Biso 1.0 Ru
Ru28 1.0000000000 0.0000000000 0.6378195754 0.6786876062  Biso 1.0 Ru
Y29 1.0000000000 0.0000000000 0.8225269685 0.9139328446  Biso 1.0 Y
Y30 1.0000000000 0.0000000000 0.1774730315 0.0860671554  Biso 1.0 Y
Y31 1.0000000000 0.0000000000 0.6774730315 0.4139328446  Biso 1.0 Y
Y32 1.0000000000 0.0000000000 0.3225269685 0.5860671554  Biso 1.0 Y
Y33 1.0000000000 0.0000000000 0.4438640772 0.8728209343  Biso 1.0 Y
Y34 1.0000000000 0.0000000000 0.5561359228 0.1271790657  Biso 1.0 Y
Y35 1.0000000000 0.0000000000 0.0561359228 0.3728209343  Biso 1.0 Y
Y36 1.0000000000 0.0000000000 0.9438640772 0.6271790657  Biso 1.0 Y
