# AFLOW.org Repositories
# Ba1Ca1Ge1 #62 - (Ba1Ca1Ge1_ICSD_52681) -
data_Ba1Ca1Ge1
_pd_phase_name Ba1Ca1Ge1
_cell_length_a  5.0973436285
_cell_length_b  8.5846482823
_cell_length_c  9.2692901641
_cell_angle_alpha  90.0000000000
_cell_angle_beta  90.0000000000
_cell_angle_gamma  90.0000000000
_symmetry_space_group_name_H-M  'P1'
_symmetry_Int_Tables_Number  1
loop_
_symmetry_equiv_pos_site_id
_symmetry_equiv_pos_as_xyz
  1  x,y,z
loop_
 _atom_site_label
 _atom_site_occupancy
 _atom_site_fract_x
 _atom_site_fract_y
 _atom_site_fract_z
 _atom_site_thermal_displace_type
 _atom_site_B_iso_or_equiv
 _atom_site_type_symbol
Ba1 1.0000000000 0.2500000000 0.5256991445 0.3233276188  Biso 1.0 Ba
Ba2 1.0000000000 0.7500000000 0.9743008555 0.8233276188  Biso 1.0 Ba
Ba3 1.0000000000 0.7500000000 0.4743008555 0.6766723812  Biso 1.0 Ba
Ba4 1.0000000000 0.2500000000 0.0256991445 0.1766723812  Biso 1.0 Ba
Ca5 1.0000000000 0.2500000000 0.6419310321 0.9267084716  Biso 1.0 Ca
Ca6 1.0000000000 0.7500000000 0.8580689679 0.4267084716  Biso 1.0 Ca
Ca7 1.0000000000 0.7500000000 0.3580689679 0.0732915284  Biso 1.0 Ca
Ca8 1.0000000000 0.2500000000 0.1419310321 0.5732915284  Biso 1.0 Ca
Ge9 1.0000000000 0.2500000000 0.2791138067 0.8921802036  Biso 1.0 Ge
Ge10 1.0000000000 0.7500000000 0.2208861933 0.3921802036  Biso 1.0 Ge
Ge11 1.0000000000 0.7500000000 0.7208861933 0.1078197964  Biso 1.0 Ge
Ge12 1.0000000000 0.2500000000 0.7791138067 0.6078197964  Biso 1.0 Ge
