# AFLOW.org Repositories
# Ba1Pt1Si3 #107 - (Ba1Pt1Si3_ICSD_174267)
data_Ba1Pt1Si3
_pd_phase_name Ba1Pt1Si3
_cell_length_a  5.9483095881
_cell_length_b  5.9483095881
_cell_length_c  5.9483095881
_cell_angle_alpha  136.2066128028
_cell_angle_beta  136.2066128028
_cell_angle_gamma  63.6610698690
_symmetry_space_group_name_H-M  'P1'
_symmetry_Int_Tables_Number  1
loop_
_symmetry_equiv_pos_site_id
_symmetry_equiv_pos_as_xyz
  1  x,y,z
loop_
 _atom_site_label
 _atom_site_occupancy
 _atom_site_fract_x
 _atom_site_fract_y
 _atom_site_fract_z
 _atom_site_thermal_displace_type
 _atom_site_B_iso_or_equiv
 _atom_site_type_symbol
Ba1 1.0000000000 0.3978779804 0.3978779804 0.0000000000  Biso 1.0 Ba
Pt2 1.0000000000 0.7496456544 0.7496456544 0.0000000000  Biso 1.0 Pt
Si3 1.0000000000 0.0071680040 0.0071680040 0.0000000000  Biso 1.0 Si
Si4 1.0000000000 0.6432541806 0.1432541806 0.5000000000  Biso 1.0 Si
Si5 1.0000000000 0.1432541806 0.6432541806 0.5000000000  Biso 1.0 Si
