# AFLOW.org Repositories
# C1Er5Ge3 #193 - (C1Er5Ge3_ICSD_617665) -
data_C1Er5Ge3
_pd_phase_name C1Er5Ge3
_cell_length_a  8.4171873850
_cell_length_b  8.4171873850
_cell_length_c  6.3819687185
_cell_angle_alpha  90.0000000000
_cell_angle_beta  90.0000000000
_cell_angle_gamma  120.0000000000
_symmetry_space_group_name_H-M  'P1'
_symmetry_Int_Tables_Number  1
loop_
_symmetry_equiv_pos_site_id
_symmetry_equiv_pos_as_xyz
  1  x,y,z
loop_
 _atom_site_label
 _atom_site_occupancy
 _atom_site_fract_x
 _atom_site_fract_y
 _atom_site_fract_z
 _atom_site_thermal_displace_type
 _atom_site_B_iso_or_equiv
 _atom_site_type_symbol
C1 1.0000000000 0.0000000000 0.0000000000 0.0000000000  Biso 1.0 C
C2 1.0000000000 0.0000000000 0.0000000000 0.5000000000  Biso 1.0 C
Er3 1.0000000000 0.6666715164 0.3333430328 0.0000000000  Biso 1.0 Er
Er4 1.0000000000 0.3333284836 0.6666569672 0.5000000000  Biso 1.0 Er
Er5 1.0000000000 0.3333284836 0.6666569672 0.0000000000  Biso 1.0 Er
Er6 1.0000000000 0.6666715164 0.3333430328 0.5000000000  Biso 1.0 Er
Er7 1.0000000000 0.0000000000 0.7790645595 0.2500000000  Biso 1.0 Er
Er8 1.0000000000 0.2209354405 0.2209354405 0.2500000000  Biso 1.0 Er
Er9 1.0000000000 0.7790647766 0.0000000000 0.2500000000  Biso 1.0 Er
Er10 1.0000000000 0.0000000000 0.2209354405 0.7500000000  Biso 1.0 Er
Er11 1.0000000000 0.7790645595 0.7790645595 0.7500000000  Biso 1.0 Er
Er12 1.0000000000 0.2209352234 0.0000000000 0.7500000000  Biso 1.0 Er
Ge13 1.0000000000 0.0000000000 0.4092422294 0.2500000000  Biso 1.0 Ge
Ge14 1.0000000000 0.5907577706 0.5907577706 0.2500000000  Biso 1.0 Ge
Ge15 1.0000000000 0.4092395029 0.0000000000 0.2500000000  Biso 1.0 Ge
Ge16 1.0000000000 0.0000000000 0.5907577706 0.7500000000  Biso 1.0 Ge
Ge17 1.0000000000 0.4092422294 0.4092422294 0.7500000000  Biso 1.0 Ge
Ge18 1.0000000000 0.5907604971 0.0000000000 0.7500000000  Biso 1.0 Ge
