# AFLOW.org Repositories
# C1Ga1Nb2 #194 - (C1Ga1Nb2_ICSD_167969) -
data_C1Ga1Nb2
_pd_phase_name C1Ga1Nb2
_cell_length_a  3.1566279875
_cell_length_b  3.1566279875
_cell_length_c  13.6486079505
_cell_angle_alpha  90.0000000000
_cell_angle_beta  90.0000000000
_cell_angle_gamma  120.0000000000
_symmetry_space_group_name_H-M  'P1'
_symmetry_Int_Tables_Number  1
loop_
_symmetry_equiv_pos_site_id
_symmetry_equiv_pos_as_xyz
  1  x,y,z
loop_
 _atom_site_label
 _atom_site_occupancy
 _atom_site_fract_x
 _atom_site_fract_y
 _atom_site_fract_z
 _atom_site_thermal_displace_type
 _atom_site_B_iso_or_equiv
 _atom_site_type_symbol
C1 1.0000000000 0.0000000000 0.0000000000 0.0000000000  Biso 1.0 C
C2 1.0000000000 0.0000000000 0.0000000000 0.5000000000  Biso 1.0 C
Ga3 1.0000000000 0.3333916619 0.6666958309 0.7500000000  Biso 1.0 Ga
Ga4 1.0000000000 0.6666083381 0.3333041691 0.2500000000  Biso 1.0 Ga
Nb5 1.0000000000 0.3333736594 0.6666868297 0.0897110553  Biso 1.0 Nb
Nb6 1.0000000000 0.6666263406 0.3333131703 0.5897110553  Biso 1.0 Nb
Nb7 1.0000000000 0.6666263406 0.3333131703 0.9102889447  Biso 1.0 Nb
Nb8 1.0000000000 0.3333736594 0.6666868297 0.4102889447  Biso 1.0 Nb
