# AFLOW.org Repositories
# C1Re1 #187 - (C1Re1_ICSD_169402) - C1Re1
data_C1Re1
_pd_phase_name C1Re1
_cell_length_a  2.8884288970
_cell_length_b  2.8884288970
_cell_length_c  2.8293847192
_cell_angle_alpha  90.0000000000
_cell_angle_beta  90.0000000000
_cell_angle_gamma  120.0000000000
_symmetry_space_group_name_H-M  'P1'
_symmetry_Int_Tables_Number  1
loop_
_symmetry_equiv_pos_site_id
_symmetry_equiv_pos_as_xyz
  1  x,y,z
loop_
 _atom_site_label
 _atom_site_occupancy
 _atom_site_fract_x
 _atom_site_fract_y
 _atom_site_fract_z
 _atom_site_thermal_displace_type
 _atom_site_B_iso_or_equiv
 _atom_site_type_symbol
C1 1.0000000000 0.6666871828 0.3333743656 0.5000000000  Biso 1.0 C
Re2 1.0000000000 0.0000000000 0.0000000000 0.0000000000  Biso 1.0 Re
