# AFLOW.org Repositories
# Cs2H4Mg1 #139 - (Cs2H4Mg1_ICSD_162261) -
data_Cs2H4Mg1
_pd_phase_name Cs2H4Mg1
_cell_length_a  8.0510423681
_cell_length_b  8.0510423681
_cell_length_c  8.0510423681
_cell_angle_alpha  148.9530807881
_cell_angle_beta  148.9530807881
_cell_angle_gamma  44.4803734133
_symmetry_space_group_name_H-M  'P1'
_symmetry_Int_Tables_Number  1
loop_
_symmetry_equiv_pos_site_id
_symmetry_equiv_pos_as_xyz
  1  x,y,z
loop_
 _atom_site_label
 _atom_site_occupancy
 _atom_site_fract_x
 _atom_site_fract_y
 _atom_site_fract_z
 _atom_site_thermal_displace_type
 _atom_site_B_iso_or_equiv
 _atom_site_type_symbol
Cs1 1.0000000000 0.6445609390 0.6445609390 0.0000000000  Biso 1.0 Cs
Cs2 1.0000000000 0.3554390610 0.3554390610 0.0000000000  Biso 1.0 Cs
H3 1.0000000000 0.8691251989 0.8691251989 0.0000000000  Biso 1.0 H
H4 1.0000000000 0.1308748011 0.1308748011 0.0000000000  Biso 1.0 H
H5 1.0000000000 0.0000000000 0.5000000000 0.5000000000  Biso 1.0 H
H6 1.0000000000 0.5000000000 0.0000000000 0.5000000000  Biso 1.0 H
Mg7 1.0000000000 0.0000000000 0.0000000000 0.0000000000  Biso 1.0 Mg
