# AFLOW.org Repositories
# Cu2Dy2In1 #127 - (Cu2Dy2In1_ICSD_627148)
data_Cu2Dy2In1
_pd_phase_name Cu2Dy2In1
_cell_length_a  7.5336022227
_cell_length_b  7.5336022227
_cell_length_c  3.7424455806
_cell_angle_alpha  90.0000000000
_cell_angle_beta  90.0000000000
_cell_angle_gamma  90.0000000000
_symmetry_space_group_name_H-M  'P1'
_symmetry_Int_Tables_Number  1
loop_
_symmetry_equiv_pos_site_id
_symmetry_equiv_pos_as_xyz
  1  x,y,z
loop_
 _atom_site_label
 _atom_site_occupancy
 _atom_site_fract_x
 _atom_site_fract_y
 _atom_site_fract_z
 _atom_site_thermal_displace_type
 _atom_site_B_iso_or_equiv
 _atom_site_type_symbol
Cu1 1.0000000000 0.6199478549 0.1199478549 0.0000000000  Biso 1.0 Cu
Cu2 1.0000000000 0.3800521451 0.8800521451 0.0000000000  Biso 1.0 Cu
Cu3 1.0000000000 0.8800521451 0.6199478549 0.0000000000  Biso 1.0 Cu
Cu4 1.0000000000 0.1199478549 0.3800521451 0.0000000000  Biso 1.0 Cu
Dy5 1.0000000000 0.1739299399 0.6739299399 0.5000000000  Biso 1.0 Dy
Dy6 1.0000000000 0.8260700601 0.3260700601 0.5000000000  Biso 1.0 Dy
Dy7 1.0000000000 0.3260700601 0.1739299399 0.5000000000  Biso 1.0 Dy
Dy8 1.0000000000 0.6739299399 0.8260700601 0.5000000000  Biso 1.0 Dy
In9 1.0000000000 0.0000000000 0.0000000000 0.0000000000  Biso 1.0 In
In10 1.0000000000 0.5000000000 0.5000000000 0.0000000000  Biso 1.0 In
