# AFLOW.org Repositories
# Cu2Sc1 #139 - (Cu2Sc1_ICSD_629012) - Cu2
data_Cu2Sc1
_pd_phase_name Cu2Sc1
_cell_length_a  4.8898764304
_cell_length_b  4.8898764304
_cell_length_c  4.8898764304
_cell_angle_alpha  140.3497985930
_cell_angle_beta  140.3497985930
_cell_angle_gamma  57.3225626405
_symmetry_space_group_name_H-M  'P1'
_symmetry_Int_Tables_Number  1
loop_
_symmetry_equiv_pos_site_id
_symmetry_equiv_pos_as_xyz
  1  x,y,z
loop_
 _atom_site_label
 _atom_site_occupancy
 _atom_site_fract_x
 _atom_site_fract_y
 _atom_site_fract_z
 _atom_site_thermal_displace_type
 _atom_site_B_iso_or_equiv
 _atom_site_type_symbol
Cu1 1.0000000000 0.3228299398 0.3228299398 0.0000000000  Biso 1.0 Cu
Cu2 1.0000000000 0.6771700602 0.6771700602 0.0000000000  Biso 1.0 Cu
Sc3 1.0000000000 0.0000000000 0.0000000000 0.0000000000  Biso 1.0 Sc
