# AFLOW.org Repositories
# Cu3Sb4Y3 #220 - (Cu3Sb4Y3_ICSD_658636) -
data_Cu3Sb4Y3
_pd_phase_name Cu3Sb4Y3
_cell_length_a  8.3207231253
_cell_length_b  8.3207231253
_cell_length_c  8.3207231253
_cell_angle_alpha  109.4712206345
_cell_angle_beta  109.4712206345
_cell_angle_gamma  109.4712206345
_symmetry_space_group_name_H-M  'P1'
_symmetry_Int_Tables_Number  1
loop_
_symmetry_equiv_pos_site_id
_symmetry_equiv_pos_as_xyz
  1  x,y,z
loop_
 _atom_site_label
 _atom_site_occupancy
 _atom_site_fract_x
 _atom_site_fract_y
 _atom_site_fract_z
 _atom_site_thermal_displace_type
 _atom_site_B_iso_or_equiv
 _atom_site_type_symbol
Cu1 1.0000000000 0.7500000000 0.8750000000 0.1250000000  Biso 1.0 Cu
Cu2 1.0000000000 0.2500000000 0.6250000000 0.3750000000  Biso 1.0 Cu
Cu3 1.0000000000 0.8750000000 0.7500000000 0.6250000000  Biso 1.0 Cu
Cu4 1.0000000000 0.6250000000 0.2500000000 0.8750000000  Biso 1.0 Cu
Cu5 1.0000000000 0.3750000000 0.1250000000 0.2500000000  Biso 1.0 Cu
Cu6 1.0000000000 0.1250000000 0.3750000000 0.7500000000  Biso 1.0 Cu
Sb7 1.0000000000 0.0000000000 0.8396235979 0.0000000000  Biso 1.0 Sb
Sb8 1.0000000000 0.3396235979 0.0000000000 0.5000000000  Biso 1.0 Sb
Sb9 1.0000000000 0.1603764021 0.6603764021 0.6603764021  Biso 1.0 Sb
Sb10 1.0000000000 0.5000000000 0.5000000000 0.8396235979  Biso 1.0 Sb
Sb11 1.0000000000 0.0000000000 0.3396235979 0.0000000000  Biso 1.0 Sb
Sb12 1.0000000000 0.8396235979 0.0000000000 0.5000000000  Biso 1.0 Sb
Sb13 1.0000000000 0.5000000000 0.5000000000 0.3396235979  Biso 1.0 Sb
Sb14 1.0000000000 0.6603764021 0.1603764021 0.1603764021  Biso 1.0 Sb
Y15 1.0000000000 0.7500000000 0.3750000000 0.6250000000  Biso 1.0 Y
Y16 1.0000000000 0.2500000000 0.1250000000 0.8750000000  Biso 1.0 Y
Y17 1.0000000000 0.3750000000 0.7500000000 0.1250000000  Biso 1.0 Y
Y18 1.0000000000 0.1250000000 0.2500000000 0.3750000000  Biso 1.0 Y
Y19 1.0000000000 0.8750000000 0.6250000000 0.2500000000  Biso 1.0 Y
Y20 1.0000000000 0.6250000000 0.8750000000 0.7500000000  Biso 1.0 Y
