# AFLOW.org Repositories
# Dy1Os2Si2 #139 - (Dy1Os2Si2_ICSD_630053)
data_Dy1Os2Si2
_pd_phase_name Dy1Os2Si2
_cell_length_a  5.6250849685
_cell_length_b  5.6250849685
_cell_length_c  5.6250849685
_cell_angle_alpha  136.2342573556
_cell_angle_beta  136.2342573556
_cell_angle_gamma  63.6183769041
_symmetry_space_group_name_H-M  'P1'
_symmetry_Int_Tables_Number  1
loop_
_symmetry_equiv_pos_site_id
_symmetry_equiv_pos_as_xyz
  1  x,y,z
loop_
 _atom_site_label
 _atom_site_occupancy
 _atom_site_fract_x
 _atom_site_fract_y
 _atom_site_fract_z
 _atom_site_thermal_displace_type
 _atom_site_B_iso_or_equiv
 _atom_site_type_symbol
Dy1 1.0000000000 0.0000000000 0.0000000000 0.0000000000  Biso 1.0 Dy
Os2 1.0000000000 0.7500000000 0.2500000000 0.5000000000  Biso 1.0 Os
Os3 1.0000000000 0.2500000000 0.7500000000 0.5000000000  Biso 1.0 Os
Si4 1.0000000000 0.3697670258 0.3697670258 0.0000000000  Biso 1.0 Si
Si5 1.0000000000 0.6302329742 0.6302329742 0.0000000000  Biso 1.0 Si
