# AFLOW.org Repositories
# Dy1Rh1Zn1 #62 - (Dy1Rh1Zn1_ICSD_419897) 
data_Dy1Rh1Zn1
_pd_phase_name Dy1Rh1Zn1
_cell_length_a  4.0034182717
_cell_length_b  6.8936772212
_cell_length_c  8.0564802006
_cell_angle_alpha  90.0000000000
_cell_angle_beta  90.0000000000
_cell_angle_gamma  90.0000000000
_symmetry_space_group_name_H-M  'P1'
_symmetry_Int_Tables_Number  1
loop_
_symmetry_equiv_pos_site_id
_symmetry_equiv_pos_as_xyz
  1  x,y,z
loop_
 _atom_site_label
 _atom_site_occupancy
 _atom_site_fract_x
 _atom_site_fract_y
 _atom_site_fract_z
 _atom_site_thermal_displace_type
 _atom_site_B_iso_or_equiv
 _atom_site_type_symbol
Dy1 1.0000000000 0.2500000000 0.0387670032 0.3159244986  Biso 1.0 Dy
Dy2 1.0000000000 0.7500000000 0.4612329968 0.8159244986  Biso 1.0 Dy
Dy3 1.0000000000 0.7500000000 0.9612329968 0.6840755014  Biso 1.0 Dy
Dy4 1.0000000000 0.2500000000 0.5387670032 0.1840755014  Biso 1.0 Dy
Rh5 1.0000000000 0.2500000000 0.2559270639 0.6212909387  Biso 1.0 Rh
Rh6 1.0000000000 0.7500000000 0.2440729361 0.1212909387  Biso 1.0 Rh
Rh7 1.0000000000 0.7500000000 0.7440729361 0.3787090613  Biso 1.0 Rh
Rh8 1.0000000000 0.2500000000 0.7559270639 0.8787090613  Biso 1.0 Rh
Zn9 1.0000000000 0.2500000000 0.6354460459 0.5631137599  Biso 1.0 Zn
Zn10 1.0000000000 0.7500000000 0.8645539541 0.0631137599  Biso 1.0 Zn
Zn11 1.0000000000 0.7500000000 0.3645539541 0.4368862401  Biso 1.0 Zn
Zn12 1.0000000000 0.2500000000 0.1354460459 0.9368862401  Biso 1.0 Zn
