# AFLOW.org Repositories
# Er1Mg1Pd1 #189 - (Er1Mg1Pd1_ICSD_657930)
data_Er1Mg1Pd1
_pd_phase_name Er1Mg1Pd1
_cell_length_a  7.4158621846
_cell_length_b  7.4158621846
_cell_length_c  4.0138074956
_cell_angle_alpha  90.0000000000
_cell_angle_beta  90.0000000000
_cell_angle_gamma  120.0000000000
_symmetry_space_group_name_H-M  'P1'
_symmetry_Int_Tables_Number  1
loop_
_symmetry_equiv_pos_site_id
_symmetry_equiv_pos_as_xyz
  1  x,y,z
loop_
 _atom_site_label
 _atom_site_occupancy
 _atom_site_fract_x
 _atom_site_fract_y
 _atom_site_fract_z
 _atom_site_thermal_displace_type
 _atom_site_B_iso_or_equiv
 _atom_site_type_symbol
Er1 1.0000000000 0.4125594530 0.4125594530 0.5000000000  Biso 1.0 Er
Er2 1.0000000000 0.5874399535 0.0000000000 0.5000000000  Biso 1.0 Er
Er3 1.0000000000 0.0000000000 0.5874339397 0.5000000000  Biso 1.0 Er
Mg4 1.0000000000 0.7545780949 0.7545780949 0.0000000000  Biso 1.0 Mg
Mg5 1.0000000000 0.2454277113 0.0000000000 0.0000000000  Biso 1.0 Mg
Mg6 1.0000000000 0.0000000000 0.2454284574 0.0000000000  Biso 1.0 Mg
Pd7 1.0000000000 0.3333306139 0.6666665205 0.0000000000  Biso 1.0 Pd
Pd8 1.0000000000 0.6666693861 0.3333359066 0.0000000000  Biso 1.0 Pd
Pd9 1.0000000000 0.0000000000 0.0000000000 0.5000000000  Biso 1.0 Pd
