# AFLOW.org Repositories
# Er1P2Ru2 #139 - (Er1P2Ru2_ICSD_602113) -
data_Er1P2Ru2
_pd_phase_name Er1P2Ru2
_cell_length_a  5.5287703138
_cell_length_b  5.5287703138
_cell_length_c  5.5287703138
_cell_angle_alpha  137.1275743264
_cell_angle_beta  137.1275743264
_cell_angle_gamma  62.2418215741
_symmetry_space_group_name_H-M  'P1'
_symmetry_Int_Tables_Number  1
loop_
_symmetry_equiv_pos_site_id
_symmetry_equiv_pos_as_xyz
  1  x,y,z
loop_
 _atom_site_label
 _atom_site_occupancy
 _atom_site_fract_x
 _atom_site_fract_y
 _atom_site_fract_z
 _atom_site_thermal_displace_type
 _atom_site_B_iso_or_equiv
 _atom_site_type_symbol
Er1 1.0000000000 0.0000000000 0.0000000000 0.0000000000  Biso 1.0 Er
P2 1.0000000000 0.6243624502 0.6243624502 0.0000000000  Biso 1.0 P
P3 1.0000000000 0.3756375498 0.3756375498 0.0000000000  Biso 1.0 P
Ru4 1.0000000000 0.7500000000 0.2500000000 0.5000000000  Biso 1.0 Ru
Ru5 1.0000000000 0.2500000000 0.7500000000 0.5000000000  Biso 1.0 Ru
