# AFLOW.org Repositories
# Ge1Hf1Rh1 #62 - (Ge1Hf1Rh1_ICSD_636582) 
data_Ge1Hf1Rh1
_pd_phase_name Ge1Hf1Rh1
_cell_length_a  3.9907443037
_cell_length_b  6.5801101159
_cell_length_c  7.5904121223
_cell_angle_alpha  90.0000000000
_cell_angle_beta  90.0000000000
_cell_angle_gamma  90.0000000000
_symmetry_space_group_name_H-M  'P1'
_symmetry_Int_Tables_Number  1
loop_
_symmetry_equiv_pos_site_id
_symmetry_equiv_pos_as_xyz
  1  x,y,z
loop_
 _atom_site_label
 _atom_site_occupancy
 _atom_site_fract_x
 _atom_site_fract_y
 _atom_site_fract_z
 _atom_site_thermal_displace_type
 _atom_site_B_iso_or_equiv
 _atom_site_type_symbol
Ge1 1.0000000000 0.2500000000 0.2625576127 0.6150643796  Biso 1.0 Ge
Ge2 1.0000000000 0.7500000000 0.2374423873 0.1150643796  Biso 1.0 Ge
Ge3 1.0000000000 0.7500000000 0.7374423873 0.3849356204  Biso 1.0 Ge
Ge4 1.0000000000 0.2500000000 0.7625576127 0.8849356204  Biso 1.0 Ge
Hf5 1.0000000000 0.2500000000 0.0229883425 0.3071825624  Biso 1.0 Hf
Hf6 1.0000000000 0.7500000000 0.4770116575 0.8071825624  Biso 1.0 Hf
Hf7 1.0000000000 0.7500000000 0.9770116575 0.6928174376  Biso 1.0 Hf
Hf8 1.0000000000 0.2500000000 0.5229883425 0.1928174376  Biso 1.0 Hf
Rh9 1.0000000000 0.2500000000 0.1454160029 0.9329002049  Biso 1.0 Rh
Rh10 1.0000000000 0.7500000000 0.3545839971 0.4329002049  Biso 1.0 Rh
Rh11 1.0000000000 0.7500000000 0.8545839971 0.0670997951  Biso 1.0 Rh
Rh12 1.0000000000 0.2500000000 0.6454160029 0.5670997951  Biso 1.0 Rh
