# AFLOW.org Repositories
# Ge1La3 #62 - (Ge1La3_ICSD_603211) - Ge1L
data_Ge1La3
_pd_phase_name Ge1La3
_cell_length_a  6.6543273500
_cell_length_b  8.1583864941
_cell_length_c  9.7990598337
_cell_angle_alpha  90.0000000000
_cell_angle_beta  90.0000000000
_cell_angle_gamma  90.0000000000
_symmetry_space_group_name_H-M  'P1'
_symmetry_Int_Tables_Number  1
loop_
_symmetry_equiv_pos_site_id
_symmetry_equiv_pos_as_xyz
  1  x,y,z
loop_
 _atom_site_label
 _atom_site_occupancy
 _atom_site_fract_x
 _atom_site_fract_y
 _atom_site_fract_z
 _atom_site_thermal_displace_type
 _atom_site_B_iso_or_equiv
 _atom_site_type_symbol
Ge1 1.0000000000 0.5784150646 0.3809262325 0.7500000000  Biso 1.0 Ge
Ge2 1.0000000000 0.0784150646 0.1190737675 0.2500000000  Biso 1.0 Ge
Ge3 1.0000000000 0.4215849354 0.6190737675 0.2500000000  Biso 1.0 Ge
Ge4 1.0000000000 0.9215849354 0.8809262325 0.7500000000  Biso 1.0 Ge
La5 1.0000000000 0.8747629939 0.1871179874 0.9475228541  Biso 1.0 La
La6 1.0000000000 0.3747629939 0.3128820126 0.0524771459  Biso 1.0 La
La7 1.0000000000 0.1252370061 0.8128820126 0.4475228541  Biso 1.0 La
La8 1.0000000000 0.6252370061 0.6871179874 0.5524771459  Biso 1.0 La
La9 1.0000000000 0.1252370061 0.8128820126 0.0524771459  Biso 1.0 La
La10 1.0000000000 0.6252370061 0.6871179874 0.9475228541  Biso 1.0 La
La11 1.0000000000 0.8747629939 0.1871179874 0.5524771459  Biso 1.0 La
La12 1.0000000000 0.3747629939 0.3128820126 0.4475228541  Biso 1.0 La
La13 1.0000000000 0.3681417518 0.0294032886 0.7500000000  Biso 1.0 La
La14 1.0000000000 0.8681417518 0.4705967114 0.2500000000  Biso 1.0 La
La15 1.0000000000 0.6318582482 0.9705967114 0.2500000000  Biso 1.0 La
La16 1.0000000000 0.1318582482 0.5294032886 0.7500000000  Biso 1.0 La
