# AFLOW.org Repositories
# Ge1O3Sr1 #189 - (Ge1O3Sr1_ICSD_28603) - 
data_Ge1O3Sr1
_pd_phase_name Ge1O3Sr1
_cell_length_a  7.0422425877
_cell_length_b  7.0422425877
_cell_length_c  5.7816432134
_cell_angle_alpha  90.0000000000
_cell_angle_beta  90.0000000000
_cell_angle_gamma  120.0000000000
_symmetry_space_group_name_H-M  'P1'
_symmetry_Int_Tables_Number  1
loop_
_symmetry_equiv_pos_site_id
_symmetry_equiv_pos_as_xyz
  1  x,y,z
loop_
 _atom_site_label
 _atom_site_occupancy
 _atom_site_fract_x
 _atom_site_fract_y
 _atom_site_fract_z
 _atom_site_thermal_displace_type
 _atom_site_B_iso_or_equiv
 _atom_site_type_symbol
Ge1 1.0000000000 0.7302913934 0.0000000000 0.0000000000  Biso 1.0 Ge
Ge2 1.0000000000 0.0000000000 0.7302913934 0.0000000000  Biso 1.0 Ge
Ge3 1.0000000000 0.2697086066 0.2697086066 0.0000000000  Biso 1.0 Ge
O4 1.0000000000 0.6373837136 0.0000000000 0.2794779651  Biso 1.0 O
O5 1.0000000000 0.0000000000 0.6373837136 0.2794779651  Biso 1.0 O
O6 1.0000000000 0.3626162864 0.3626162864 0.2794779651  Biso 1.0 O
O7 1.0000000000 0.6373837136 0.0000000000 0.7205220349  Biso 1.0 O
O8 1.0000000000 0.0000000000 0.6373837136 0.7205220349  Biso 1.0 O
O9 1.0000000000 0.3626162864 0.3626162864 0.7205220349  Biso 1.0 O
O10 1.0000000000 0.2446398563 0.0000000000 0.0000000000  Biso 1.0 O
O11 1.0000000000 0.0000000000 0.2446398563 0.0000000000  Biso 1.0 O
O12 1.0000000000 0.7553601437 0.7553601437 0.0000000000  Biso 1.0 O
Sr13 1.0000000000 0.3370679123 0.0000000000 0.5000000000  Biso 1.0 Sr
Sr14 1.0000000000 0.0000000000 0.3370679123 0.5000000000  Biso 1.0 Sr
Sr15 1.0000000000 0.6629320877 0.6629320877 0.5000000000  Biso 1.0 Sr
