# AFLOW.org Repositories
# Ge2N3Na1 #36 - (Ge2N3Na1_ICSD_47100) - G
data_Ge2N3Na1
_pd_phase_name Ge2N3Na1
_cell_length_a  5.7748663609
_cell_length_b  5.7748663609
_cell_length_c  5.1963385985
_cell_angle_alpha  90.0000000000
_cell_angle_beta  90.0000000000
_cell_angle_gamma  118.9643053302
_symmetry_space_group_name_H-M  'P1'
_symmetry_Int_Tables_Number  1
loop_
_symmetry_equiv_pos_site_id
_symmetry_equiv_pos_as_xyz
  1  x,y,z
loop_
 _atom_site_label
 _atom_site_occupancy
 _atom_site_fract_x
 _atom_site_fract_y
 _atom_site_fract_z
 _atom_site_thermal_displace_type
 _atom_site_B_iso_or_equiv
 _atom_site_type_symbol
Ge1 1.0000000000 0.3238287539 0.9875888399 0.9757426439  Biso 1.0 Ge
Ge2 1.0000000000 0.6761712461 0.0124111601 0.4757426439  Biso 1.0 Ge
Ge3 1.0000000000 0.0124111601 0.6761712461 0.4757426439  Biso 1.0 Ge
Ge4 1.0000000000 0.9875888399 0.3238287539 0.9757426439  Biso 1.0 Ge
N5 1.0000000000 0.3413233424 0.9226246697 0.6210299993  Biso 1.0 N
N6 1.0000000000 0.6586766576 0.0773753303 0.1210299993  Biso 1.0 N
N7 1.0000000000 0.0773753303 0.6586766576 0.1210299993  Biso 1.0 N
N8 1.0000000000 0.9226246697 0.3413233424 0.6210299993  Biso 1.0 N
N9 1.0000000000 0.7412160750 0.7412160750 0.5458640377  Biso 1.0 N
N10 1.0000000000 0.2587839250 0.2587839250 0.0458640377  Biso 1.0 N
Na11 1.0000000000 0.6600010318 0.6600010318 0.0025906758  Biso 1.0 Na
Na12 1.0000000000 0.3399989682 0.3399989682 0.5025906758  Biso 1.0 Na
