# AFLOW.org Repositories
# Ir3Zr5 #193 - (Ir3Zr5_ICSD_641203) - Ir3
data_Ir3Zr5
_pd_phase_name Ir3Zr5
_cell_length_a  8.0430417460
_cell_length_b  8.0430417460
_cell_length_c  5.5324256159
_cell_angle_alpha  90.0000000000
_cell_angle_beta  90.0000000000
_cell_angle_gamma  120.0000000000
_symmetry_space_group_name_H-M  'P1'
_symmetry_Int_Tables_Number  1
loop_
_symmetry_equiv_pos_site_id
_symmetry_equiv_pos_as_xyz
  1  x,y,z
loop_
 _atom_site_label
 _atom_site_occupancy
 _atom_site_fract_x
 _atom_site_fract_y
 _atom_site_fract_z
 _atom_site_thermal_displace_type
 _atom_site_B_iso_or_equiv
 _atom_site_type_symbol
Ir1 1.0000000000 0.0000000000 0.3947530290 0.2500000000  Biso 1.0 Ir
Ir2 1.0000000000 0.6052469710 0.6052469710 0.2500000000  Biso 1.0 Ir
Ir3 1.0000000000 0.3947536825 0.0000000000 0.2500000000  Biso 1.0 Ir
Ir4 1.0000000000 0.0000000000 0.6052469710 0.7500000000  Biso 1.0 Ir
Ir5 1.0000000000 0.3947530290 0.3947530290 0.7500000000  Biso 1.0 Ir
Ir6 1.0000000000 0.6052463175 0.0000000000 0.7500000000  Biso 1.0 Ir
Zr7 1.0000000000 0.6666715881 0.3333431762 0.0000000000  Biso 1.0 Zr
Zr8 1.0000000000 0.3333284119 0.6666568238 0.5000000000  Biso 1.0 Zr
Zr9 1.0000000000 0.3333284119 0.6666568238 0.0000000000  Biso 1.0 Zr
Zr10 1.0000000000 0.6666715881 0.3333431762 0.5000000000  Biso 1.0 Zr
Zr11 1.0000000000 0.0000000000 0.7586824108 0.2500000000  Biso 1.0 Zr
Zr12 1.0000000000 0.2413175892 0.2413175892 0.2500000000  Biso 1.0 Zr
Zr13 1.0000000000 0.7586748625 0.0000000000 0.2500000000  Biso 1.0 Zr
Zr14 1.0000000000 0.0000000000 0.2413175892 0.7500000000  Biso 1.0 Zr
Zr15 1.0000000000 0.7586824108 0.7586824108 0.7500000000  Biso 1.0 Zr
Zr16 1.0000000000 0.2413251375 0.0000000000 0.7500000000  Biso 1.0 Zr
