# AFLOW.org Repositories
# La1Rh1Si3 #107 - (La1Rh1Si3_ICSD_604624)
data_La1Rh1Si3
_pd_phase_name La1Rh1Si3
_cell_length_a  5.7983744397
_cell_length_b  5.7983744397
_cell_length_c  5.7983744397
_cell_angle_alpha  136.5378834483
_cell_angle_beta  136.5378834483
_cell_angle_gamma  63.1498461672
_symmetry_space_group_name_H-M  'P1'
_symmetry_Int_Tables_Number  1
loop_
_symmetry_equiv_pos_site_id
_symmetry_equiv_pos_as_xyz
  1  x,y,z
loop_
 _atom_site_label
 _atom_site_occupancy
 _atom_site_fract_x
 _atom_site_fract_y
 _atom_site_fract_z
 _atom_site_thermal_displace_type
 _atom_site_B_iso_or_equiv
 _atom_site_type_symbol
La1 1.0000000000 0.0000000000 0.0000000000 0.0000000000  Biso 1.0 La
Rh2 1.0000000000 0.3450904954 0.3450904954 0.0000000000  Biso 1.0 Rh
Si3 1.0000000000 0.5884973947 0.5884973947 0.0000000000  Biso 1.0 Si
Si4 1.0000000000 0.2384067848 0.7384067848 0.5000000000  Biso 1.0 Si
Si5 1.0000000000 0.7384067848 0.2384067848 0.5000000000  Biso 1.0 Si
