# AFLOW.org Repositories
# La1Rh1Si1 #198 - (La1Rh1Si1_ICSD_641749)
data_La1Rh1Si1
_pd_phase_name La1Rh1Si1
_cell_length_a  6.4011843798
_cell_length_b  6.4011843798
_cell_length_c  6.4011843798
_cell_angle_alpha  90.0000000000
_cell_angle_beta  90.0000000000
_cell_angle_gamma  90.0000000000
_symmetry_space_group_name_H-M  'P1'
_symmetry_Int_Tables_Number  1
loop_
_symmetry_equiv_pos_site_id
_symmetry_equiv_pos_as_xyz
  1  x,y,z
loop_
 _atom_site_label
 _atom_site_occupancy
 _atom_site_fract_x
 _atom_site_fract_y
 _atom_site_fract_z
 _atom_site_thermal_displace_type
 _atom_site_B_iso_or_equiv
 _atom_site_type_symbol
La1 1.0000000000 0.8676935616 0.8676935616 0.1323064384  Biso 1.0 La
La2 1.0000000000 0.6323064384 0.1323064384 0.6323064384  Biso 1.0 La
La3 1.0000000000 0.1323064384 0.3676935616 0.3676935616  Biso 1.0 La
La4 1.0000000000 0.3676935616 0.6323064384 0.8676935616  Biso 1.0 La
Rh5 1.0000000000 0.5793776322 0.5793776322 0.4206223678  Biso 1.0 Rh
Rh6 1.0000000000 0.9206223678 0.4206223678 0.9206223678  Biso 1.0 Rh
Rh7 1.0000000000 0.4206223678 0.0793776322 0.0793776322  Biso 1.0 Rh
Rh8 1.0000000000 0.0793776322 0.9206223678 0.5793776322  Biso 1.0 Rh
Si9 1.0000000000 0.1615909874 0.1615909874 0.8384090126  Biso 1.0 Si
Si10 1.0000000000 0.3384090126 0.8384090126 0.3384090126  Biso 1.0 Si
Si11 1.0000000000 0.8384090126 0.6615909874 0.6615909874  Biso 1.0 Si
Si12 1.0000000000 0.6615909874 0.3384090126 0.1615909874  Biso 1.0 Si
