# AFLOW.org Repositories
# Lu2Mn1S4 #227.0 - (Lu2Mn1S4_ICSD_37421) 
data_Lu2Mn1S4
_pd_phase_name Lu2Mn1S4
_cell_length_a  7.7571728602
_cell_length_b  7.7571728602
_cell_length_c  7.7571728602
_cell_angle_alpha  60.0000000000
_cell_angle_beta  60.0000000000
_cell_angle_gamma  60.0000000000
_symmetry_space_group_name_H-M  'P1'
_symmetry_Int_Tables_Number  1
loop_
_symmetry_equiv_pos_site_id
_symmetry_equiv_pos_as_xyz
  1  x,y,z
loop_
 _atom_site_label
 _atom_site_occupancy
 _atom_site_fract_x
 _atom_site_fract_y
 _atom_site_fract_z
 _atom_site_thermal_displace_type
 _atom_site_B_iso_or_equiv
 _atom_site_type_symbol
Lu1 1.0000000000 0.3750000000 0.3750000000 0.8750000000  Biso 1.0 Lu
Lu2 1.0000000000 0.3750000000 0.8750000000 0.3750000000  Biso 1.0 Lu
Lu3 1.0000000000 0.8750000000 0.3750000000 0.3750000000  Biso 1.0 Lu
Lu4 1.0000000000 0.3750000000 0.3750000000 0.3750000000  Biso 1.0 Lu
Mn5 1.0000000000 0.0000000000 0.0000000000 0.0000000000  Biso 1.0 Mn
Mn6 1.0000000000 0.7500000000 0.7500000000 0.7500000000  Biso 1.0 Mn
S7 1.0000000000 0.6187658620 0.6187658620 0.1437024141  Biso 1.0 S
S8 1.0000000000 0.6187658620 0.1437024141 0.6187658620  Biso 1.0 S
S9 1.0000000000 0.1437024141 0.6187658620 0.6187658620  Biso 1.0 S
S10 1.0000000000 0.6187658620 0.6187658620 0.6187658620  Biso 1.0 S
S11 1.0000000000 0.1312341380 0.6062975859 0.1312341380  Biso 1.0 S
S12 1.0000000000 0.1312341380 0.1312341380 0.6062975859  Biso 1.0 S
S13 1.0000000000 0.6062975859 0.1312341380 0.1312341380  Biso 1.0 S
S14 1.0000000000 0.1312341380 0.1312341380 0.1312341380  Biso 1.0 S
