# AFLOW.org Repositories
# Mg2O4Si1 #12.1 - (Mg2O4Si1_ICSD_27534) -
data_Mg2O4Si1
_pd_phase_name Mg2O4Si1
_cell_length_a  6.0141649643
_cell_length_b  6.0141649643
_cell_length_c  4.8269487621
_cell_angle_alpha  90.0000000000
_cell_angle_beta  90.0000000000
_cell_angle_gamma  120.0000000000
_symmetry_space_group_name_H-M  'P1'
_symmetry_Int_Tables_Number  1
loop_
_symmetry_equiv_pos_site_id
_symmetry_equiv_pos_as_xyz
  1  x,y,z
loop_
 _atom_site_label
 _atom_site_occupancy
 _atom_site_fract_x
 _atom_site_fract_y
 _atom_site_fract_z
 _atom_site_thermal_displace_type
 _atom_site_B_iso_or_equiv
 _atom_site_type_symbol
Mg1 1.0000000000 0.0000000000 0.0000000000 0.0000000000  Biso 1.0 Mg
Mg2 1.0000000000 0.5000000000 0.0000000000 0.5000000000  Biso 1.0 Mg
Mg3 1.0000000000 0.0000000000 0.5000000000 0.5000000000  Biso 1.0 Mg
Mg4 1.0000000000 0.5000000000 0.5000000000 0.5000000000  Biso 1.0 Mg
O5 1.0000000000 0.1886144642 0.3772289284 0.2231696822  Biso 1.0 O
O6 1.0000000000 0.8113855358 0.6227710716 0.7768303178  Biso 1.0 O
O7 1.0000000000 0.6666643708 0.3333287416 0.2650049139  Biso 1.0 O
O8 1.0000000000 0.3333356292 0.6666712584 0.7349950861  Biso 1.0 O
O9 1.0000000000 0.1886134389 0.8113656875 0.2231869536  Biso 1.0 O
O10 1.0000000000 0.3772477514 0.1886343125 0.7768130464  Biso 1.0 O
O11 1.0000000000 0.8113865611 0.1886343125 0.7768130464  Biso 1.0 O
O12 1.0000000000 0.6227522486 0.8113656875 0.2231869536  Biso 1.0 O
Si13 1.0000000000 0.6666715336 0.3333430671 0.9270014069  Biso 1.0 Si
Si14 1.0000000000 0.3333284664 0.6666569329 0.0729985931  Biso 1.0 Si
