# AFLOW.org Repositories
# Mg2Si1 #194 - (Mg2Si1_ICSD_167512) - Mg2
data_Mg2Si1
_pd_phase_name Mg2Si1
_cell_length_a  4.6422969950
_cell_length_b  4.6422969950
_cell_length_c  6.0520009225
_cell_angle_alpha  90.0000000000
_cell_angle_beta  90.0000000000
_cell_angle_gamma  120.0000000000
_symmetry_space_group_name_H-M  'P1'
_symmetry_Int_Tables_Number  1
loop_
_symmetry_equiv_pos_site_id
_symmetry_equiv_pos_as_xyz
  1  x,y,z
loop_
 _atom_site_label
 _atom_site_occupancy
 _atom_site_fract_x
 _atom_site_fract_y
 _atom_site_fract_z
 _atom_site_thermal_displace_type
 _atom_site_B_iso_or_equiv
 _atom_site_type_symbol
Mg1 1.0000000000 0.3333347290 0.6666694580 0.2500000000  Biso 1.0 Mg
Mg2 1.0000000000 0.6666652710 0.3333305420 0.7500000000  Biso 1.0 Mg
Mg3 1.0000000000 0.0000000000 0.0000000000 0.0000000000  Biso 1.0 Mg
Mg4 1.0000000000 0.0000000000 0.0000000000 0.5000000000  Biso 1.0 Mg
Si5 1.0000000000 0.3333385692 0.6666771383 0.7500000000  Biso 1.0 Si
Si6 1.0000000000 0.6666614308 0.3333228617 0.2500000000  Biso 1.0 Si
