# AFLOW.org Repositories
# Mo1O6Rh2 #136 - (Mo1O6Rh2_ICSD_200014) -
data_Mo1O6Rh2
_pd_phase_name Mo1O6Rh2
_cell_length_a  4.6805998133
_cell_length_b  4.6805998133
_cell_length_c  9.2439720994
_cell_angle_alpha  90.0000000000
_cell_angle_beta  90.0000000000
_cell_angle_gamma  90.0000000000
_symmetry_space_group_name_H-M  'P1'
_symmetry_Int_Tables_Number  1
loop_
_symmetry_equiv_pos_site_id
_symmetry_equiv_pos_as_xyz
  1  x,y,z
loop_
 _atom_site_label
 _atom_site_occupancy
 _atom_site_fract_x
 _atom_site_fract_y
 _atom_site_fract_z
 _atom_site_thermal_displace_type
 _atom_site_B_iso_or_equiv
 _atom_site_type_symbol
Mo1 1.0000000000 0.0000000000 0.0000000000 0.0000000000  Biso 1.0 Mo
Mo2 1.0000000000 0.5000000000 0.5000000000 0.5000000000  Biso 1.0 Mo
O3 1.0000000000 0.3007046979 0.3007046979 0.0000000000  Biso 1.0 O
O4 1.0000000000 0.6992953021 0.6992953021 0.0000000000  Biso 1.0 O
O5 1.0000000000 0.1992953021 0.8007046979 0.5000000000  Biso 1.0 O
O6 1.0000000000 0.8007046979 0.1992953021 0.5000000000  Biso 1.0 O
O7 1.0000000000 0.3058932101 0.3058932101 0.3439115957  Biso 1.0 O
O8 1.0000000000 0.6941067899 0.6941067899 0.3439115957  Biso 1.0 O
O9 1.0000000000 0.1941067899 0.8058932101 0.8439115957  Biso 1.0 O
O10 1.0000000000 0.8058932101 0.1941067899 0.8439115957  Biso 1.0 O
O11 1.0000000000 0.1941067899 0.8058932101 0.1560884043  Biso 1.0 O
O12 1.0000000000 0.8058932101 0.1941067899 0.1560884043  Biso 1.0 O
O13 1.0000000000 0.3058932101 0.3058932101 0.6560884043  Biso 1.0 O
O14 1.0000000000 0.6941067899 0.6941067899 0.6560884043  Biso 1.0 O
Rh15 1.0000000000 0.0000000000 0.0000000000 0.3329278717  Biso 1.0 Rh
Rh16 1.0000000000 0.5000000000 0.5000000000 0.8329278717  Biso 1.0 Rh
Rh17 1.0000000000 0.5000000000 0.5000000000 0.1670721283  Biso 1.0 Rh
Rh18 1.0000000000 0.0000000000 0.0000000000 0.6670721283  Biso 1.0 Rh
