# AFLOW.org Repositories
# Ni1P1W1 #189 - (Ni1P1W1_ICSD_646181) - N
data_Ni1P1W1
_pd_phase_name Ni1P1W1
_cell_length_a  5.8482772683
_cell_length_b  5.8482772683
_cell_length_c  3.7643692905
_cell_angle_alpha  90.0000000000
_cell_angle_beta  90.0000000000
_cell_angle_gamma  120.0000000000
_symmetry_space_group_name_H-M  'P1'
_symmetry_Int_Tables_Number  1
loop_
_symmetry_equiv_pos_site_id
_symmetry_equiv_pos_as_xyz
  1  x,y,z
loop_
 _atom_site_label
 _atom_site_occupancy
 _atom_site_fract_x
 _atom_site_fract_y
 _atom_site_fract_z
 _atom_site_thermal_displace_type
 _atom_site_B_iso_or_equiv
 _atom_site_type_symbol
Ni1 1.0000000000 0.0000000000 0.7484129976 0.0000000000  Biso 1.0 Ni
Ni2 1.0000000000 0.2515870024 0.2515870024 0.0000000000  Biso 1.0 Ni
Ni3 1.0000000000 0.7484162368 0.0000000000 0.0000000000  Biso 1.0 Ni
P4 1.0000000000 0.6666664644 0.3333338541 0.0000000000  Biso 1.0 P
P5 1.0000000000 0.3333326103 0.6666661459 0.0000000000  Biso 1.0 P
P6 1.0000000000 0.0000000000 0.0000000000 0.5000000000  Biso 1.0 P
W7 1.0000000000 0.0000000000 0.4150590251 0.5000000000  Biso 1.0 W
W8 1.0000000000 0.5849409749 0.5849409749 0.5000000000  Biso 1.0 W
W9 1.0000000000 0.4150598285 0.0000000000 0.5000000000  Biso 1.0 W
