# AFLOW.org Repositories
# Ni1P1Rh1 #189 - (Ni1P1Rh1_ICSD_646131) -
data_Ni1P1Rh1
_pd_phase_name Ni1P1Rh1
_cell_length_a  5.9570330665
_cell_length_b  5.9570330665
_cell_length_c  3.4731267217
_cell_angle_alpha  90.0000000000
_cell_angle_beta  90.0000000000
_cell_angle_gamma  120.0000000000
_symmetry_space_group_name_H-M  'P1'
_symmetry_Int_Tables_Number  1
loop_
_symmetry_equiv_pos_site_id
_symmetry_equiv_pos_as_xyz
  1  x,y,z
loop_
 _atom_site_label
 _atom_site_occupancy
 _atom_site_fract_x
 _atom_site_fract_y
 _atom_site_fract_z
 _atom_site_thermal_displace_type
 _atom_site_B_iso_or_equiv
 _atom_site_type_symbol
Ni1 1.0000000000 0.0000000000 0.7413810354 0.0000000000  Biso 1.0 Ni
Ni2 1.0000000000 0.2586189646 0.2586189646 0.0000000000  Biso 1.0 Ni
Ni3 1.0000000000 0.7413856850 0.0000000000 0.0000000000  Biso 1.0 Ni
P4 1.0000000000 0.6666697174 0.3333363846 0.0000000000  Biso 1.0 P
P5 1.0000000000 0.3333333328 0.6666636154 0.0000000000  Biso 1.0 P
P6 1.0000000000 0.0000000000 0.0000000000 0.5000000000  Biso 1.0 P
Rh7 1.0000000000 0.0000000000 0.3910237421 0.5000000000  Biso 1.0 Rh
Rh8 1.0000000000 0.6089762579 0.6089762579 0.5000000000  Biso 1.0 Rh
Rh9 1.0000000000 0.3910214094 0.0000000000 0.5000000000  Biso 1.0 Rh
