# AFLOW.org Repositories
# P1Ru1Ta1 #62 - (P1Ru1Ta1_ICSD_648031) - 
data_P1Ru1Ta1
_pd_phase_name P1Ru1Ta1
_cell_length_a  3.7378080452
_cell_length_b  6.3470514695
_cell_length_c  7.2078893706
_cell_angle_alpha  90.0000000000
_cell_angle_beta  90.0000000000
_cell_angle_gamma  90.0000000000
_symmetry_space_group_name_H-M  'P1'
_symmetry_Int_Tables_Number  1
loop_
_symmetry_equiv_pos_site_id
_symmetry_equiv_pos_as_xyz
  1  x,y,z
loop_
 _atom_site_label
 _atom_site_occupancy
 _atom_site_fract_x
 _atom_site_fract_y
 _atom_site_fract_z
 _atom_site_thermal_displace_type
 _atom_site_B_iso_or_equiv
 _atom_site_type_symbol
P1 1.0000000000 0.2500000000 0.7693110863 0.3756940545  Biso 1.0 P
P2 1.0000000000 0.7500000000 0.7306889137 0.8756940545  Biso 1.0 P
P3 1.0000000000 0.7500000000 0.2306889137 0.6243059455  Biso 1.0 P
P4 1.0000000000 0.2500000000 0.2693110863 0.1243059455  Biso 1.0 P
Ru5 1.0000000000 0.2500000000 0.1449382679 0.4358202771  Biso 1.0 Ru
Ru6 1.0000000000 0.7500000000 0.3550617321 0.9358202771  Biso 1.0 Ru
Ru7 1.0000000000 0.7500000000 0.8550617321 0.5641797229  Biso 1.0 Ru
Ru8 1.0000000000 0.2500000000 0.6449382679 0.0641797229  Biso 1.0 Ru
Ta9 1.0000000000 0.2500000000 0.0233076587 0.8279105354  Biso 1.0 Ta
Ta10 1.0000000000 0.7500000000 0.4766923413 0.3279105354  Biso 1.0 Ta
Ta11 1.0000000000 0.7500000000 0.9766923413 0.1720894646  Biso 1.0 Ta
Ta12 1.0000000000 0.2500000000 0.5233076587 0.6720894646  Biso 1.0 Ta
