# AFLOW.org Repositories
# Pd1Sc2 #227.2 - (Pd1Sc2_ICSD_648809) - P
data_Pd1Sc2
_pd_phase_name Pd1Sc2
_cell_length_a  8.9657066461
_cell_length_b  8.9657066461
_cell_length_c  8.9657066461
_cell_angle_alpha  60.0000000000
_cell_angle_beta  60.0000000000
_cell_angle_gamma  60.0000000000
_symmetry_space_group_name_H-M  'P1'
_symmetry_Int_Tables_Number  1
loop_
_symmetry_equiv_pos_site_id
_symmetry_equiv_pos_as_xyz
  1  x,y,z
loop_
 _atom_site_label
 _atom_site_occupancy
 _atom_site_fract_x
 _atom_site_fract_y
 _atom_site_fract_z
 _atom_site_thermal_displace_type
 _atom_site_B_iso_or_equiv
 _atom_site_type_symbol
Pd1 1.0000000000 0.2157543525 0.3527369424 0.2157543525  Biso 1.0 Pd
Pd2 1.0000000000 0.8527369424 0.7157543525 0.2157543525  Biso 1.0 Pd
Pd3 1.0000000000 0.2157543525 0.7157543525 0.2157543525  Biso 1.0 Pd
Pd4 1.0000000000 0.2157543525 0.7157543525 0.8527369424  Biso 1.0 Pd
Pd5 1.0000000000 0.1472630576 0.2842456475 0.7842456475  Biso 1.0 Pd
Pd6 1.0000000000 0.7842456475 0.6472630576 0.7842456475  Biso 1.0 Pd
Pd7 1.0000000000 0.7842456475 0.2842456475 0.7842456475  Biso 1.0 Pd
Pd8 1.0000000000 0.7842456475 0.2842456475 0.1472630576  Biso 1.0 Pd
Sc9 1.0000000000 0.0000000000 0.0000000000 0.0000000000  Biso 1.0 Sc
Sc10 1.0000000000 0.5000000000 0.5000000000 0.0000000000  Biso 1.0 Sc
Sc11 1.0000000000 0.0000000000 0.5000000000 0.0000000000  Biso 1.0 Sc
Sc12 1.0000000000 0.0000000000 0.5000000000 0.5000000000  Biso 1.0 Sc
Sc13 1.0000000000 0.4410243475 0.3089756525 0.8089756525  Biso 1.0 Sc
Sc14 1.0000000000 0.8089756525 0.9410243475 0.4410243475  Biso 1.0 Sc
Sc15 1.0000000000 0.4410243475 0.3089756525 0.4410243475  Biso 1.0 Sc
Sc16 1.0000000000 0.8089756525 0.9410243475 0.8089756525  Biso 1.0 Sc
Sc17 1.0000000000 0.8089756525 0.3089756525 0.4410243475  Biso 1.0 Sc
Sc18 1.0000000000 0.4410243475 0.9410243475 0.8089756525  Biso 1.0 Sc
Sc19 1.0000000000 0.1910243475 0.0589756525 0.1910243475  Biso 1.0 Sc
Sc20 1.0000000000 0.5589756525 0.6910243475 0.5589756525  Biso 1.0 Sc
Sc21 1.0000000000 0.1910243475 0.0589756525 0.5589756525  Biso 1.0 Sc
Sc22 1.0000000000 0.5589756525 0.6910243475 0.1910243475  Biso 1.0 Sc
Sc23 1.0000000000 0.1910243475 0.6910243475 0.5589756525  Biso 1.0 Sc
Sc24 1.0000000000 0.5589756525 0.0589756525 0.1910243475  Biso 1.0 Sc
