# AFLOW.org Repositories
# Pt8Sc4Si4 #63 - (Pt8Sc4Si4_ICSD_420355) 
data_Pt8Sc4Si4
_pd_phase_name Pt8Sc4Si4
_cell_length_a  5.3367056583
_cell_length_b  5.3367056583
_cell_length_c  7.0099250135
_cell_angle_alpha  90.0000000000
_cell_angle_beta  90.0000000000
_cell_angle_gamma  139.5189777714
_symmetry_space_group_name_H-M  'P1'
_symmetry_Int_Tables_Number  1
loop_
_symmetry_equiv_pos_site_id
_symmetry_equiv_pos_as_xyz
  1  x,y,z
loop_
 _atom_site_label
 _atom_site_occupancy
 _atom_site_fract_x
 _atom_site_fract_y
 _atom_site_fract_z
 _atom_site_thermal_displace_type
 _atom_site_B_iso_or_equiv
 _atom_site_type_symbol
Pt1 1.0000000000 0.3611190568 0.6388809432 0.9515094500  Biso 1.0 Pt
Pt2 1.0000000000 0.6388809432 0.3611190568 0.4515094500  Biso 1.0 Pt
Pt3 1.0000000000 0.3611190568 0.6388809432 0.5484905500  Biso 1.0 Pt
Pt4 1.0000000000 0.6388809432 0.3611190568 0.0484905500  Biso 1.0 Pt
Sc5 1.0000000000 0.0469992536 0.9530007464 0.7500000000  Biso 1.0 Sc
Sc6 1.0000000000 0.9530007464 0.0469992536 0.2500000000  Biso 1.0 Sc
Si7 1.0000000000 0.7666395741 0.2333604259 0.7500000000  Biso 1.0 Si
Si8 1.0000000000 0.2333604259 0.7666395741 0.2500000000  Biso 1.0 Si
