# AFLOW.org Repositories
# Rh1Si1Zr1 #62 - (Rh1Si1Zr1_ICSD_650356) 
data_Rh1Si1Zr1
_pd_phase_name Rh1Si1Zr1
_cell_length_a  3.9302330175
_cell_length_b  6.5983377826
_cell_length_c  7.4586777908
_cell_angle_alpha  90.0000000000
_cell_angle_beta  90.0000000000
_cell_angle_gamma  90.0000000000
_symmetry_space_group_name_H-M  'P1'
_symmetry_Int_Tables_Number  1
loop_
_symmetry_equiv_pos_site_id
_symmetry_equiv_pos_as_xyz
  1  x,y,z
loop_
 _atom_site_label
 _atom_site_occupancy
 _atom_site_fract_x
 _atom_site_fract_y
 _atom_site_fract_z
 _atom_site_thermal_displace_type
 _atom_site_B_iso_or_equiv
 _atom_site_type_symbol
Rh1 1.0000000000 0.2500000000 0.1463876883 0.4334091467  Biso 1.0 Rh
Rh2 1.0000000000 0.7500000000 0.3536123117 0.9334091467  Biso 1.0 Rh
Rh3 1.0000000000 0.7500000000 0.8536123117 0.5665908533  Biso 1.0 Rh
Rh4 1.0000000000 0.2500000000 0.6463876883 0.0665908533  Biso 1.0 Rh
Si5 1.0000000000 0.2500000000 0.7754016477 0.3855688711  Biso 1.0 Si
Si6 1.0000000000 0.7500000000 0.7245983523 0.8855688711  Biso 1.0 Si
Si7 1.0000000000 0.7500000000 0.2245983523 0.6144311289  Biso 1.0 Si
Si8 1.0000000000 0.2500000000 0.2754016477 0.1144311289  Biso 1.0 Si
Zr9 1.0000000000 0.2500000000 0.0177866263 0.8135126838  Biso 1.0 Zr
Zr10 1.0000000000 0.7500000000 0.4822133737 0.3135126838  Biso 1.0 Zr
Zr11 1.0000000000 0.7500000000 0.9822133737 0.1864873162  Biso 1.0 Zr
Zr12 1.0000000000 0.2500000000 0.5177866263 0.6864873162  Biso 1.0 Zr
