# AFLOW.org Repositories
# Rh2Si2Y1 #139 - (Rh2Si2Y1_ICSD_602257) -
data_Rh2Si2Y1
_pd_phase_name Rh2Si2Y1
_cell_length_a  5.7417371747
_cell_length_b  5.7417371747
_cell_length_c  5.7417371747
_cell_angle_alpha  138.7075314459
_cell_angle_beta  138.7075314459
_cell_angle_gamma  59.8210910061
_symmetry_space_group_name_H-M  'P1'
_symmetry_Int_Tables_Number  1
loop_
_symmetry_equiv_pos_site_id
_symmetry_equiv_pos_as_xyz
  1  x,y,z
loop_
 _atom_site_label
 _atom_site_occupancy
 _atom_site_fract_x
 _atom_site_fract_y
 _atom_site_fract_z
 _atom_site_thermal_displace_type
 _atom_site_B_iso_or_equiv
 _atom_site_type_symbol
Rh1 1.0000000000 0.7500000000 0.2500000000 0.5000000000  Biso 1.0 Rh
Rh2 1.0000000000 0.2500000000 0.7500000000 0.5000000000  Biso 1.0 Rh
Si3 1.0000000000 0.6220978116 0.6220978116 0.0000000000  Biso 1.0 Si
Si4 1.0000000000 0.3779021884 0.3779021884 0.0000000000  Biso 1.0 Si
Y5 1.0000000000 0.0000000000 0.0000000000 0.0000000000  Biso 1.0 Y
