# AFLOW.org Repositories
# Rh3Th7 #186 - (Rh3Th7_ICSD_150667) - Rh3
data_Rh3Th7
_pd_phase_name Rh3Th7
_cell_length_a  10.3207436641
_cell_length_b  10.3207436641
_cell_length_c  6.4781566023
_cell_angle_alpha  90.0000000000
_cell_angle_beta  90.0000000000
_cell_angle_gamma  120.0000000000
_symmetry_space_group_name_H-M  'P1'
_symmetry_Int_Tables_Number  1
loop_
_symmetry_equiv_pos_site_id
_symmetry_equiv_pos_as_xyz
  1  x,y,z
loop_
 _atom_site_label
 _atom_site_occupancy
 _atom_site_fract_x
 _atom_site_fract_y
 _atom_site_fract_z
 _atom_site_thermal_displace_type
 _atom_site_B_iso_or_equiv
 _atom_site_type_symbol
Rh1 1.0000000000 0.1868333486 0.3736666971 0.0567030000  Biso 1.0 Rh
Rh2 1.0000000000 0.6263533720 0.8131784630 0.0566403211  Biso 1.0 Rh
Rh3 1.0000000000 0.1868250910 0.8131784630 0.0566403211  Biso 1.0 Rh
Rh4 1.0000000000 0.8131666514 0.6263333029 0.5567030000  Biso 1.0 Rh
Rh5 1.0000000000 0.3736466280 0.1868215370 0.5566403211  Biso 1.0 Rh
Rh6 1.0000000000 0.8131749090 0.1868215370 0.5566403211  Biso 1.0 Rh
Th7 1.0000000000 0.6666674618 0.3333349237 0.8142159348  Biso 1.0 Th
Th8 1.0000000000 0.3333325382 0.6666650763 0.3142159348  Biso 1.0 Th
Th9 1.0000000000 0.8729125783 0.7458251565 0.9912341890  Biso 1.0 Th
Th10 1.0000000000 0.2541788400 0.1270929638 0.9912310046  Biso 1.0 Th
Th11 1.0000000000 0.8729141238 0.1270929638 0.9912310046  Biso 1.0 Th
Th12 1.0000000000 0.1270874217 0.2541748435 0.4912341890  Biso 1.0 Th
Th13 1.0000000000 0.7458211600 0.8729070362 0.4912310046  Biso 1.0 Th
Th14 1.0000000000 0.1270858762 0.8729070362 0.4912310046  Biso 1.0 Th
Th15 1.0000000000 0.4562133156 0.9124266312 0.7946930529  Biso 1.0 Th
Th16 1.0000000000 0.0875698054 0.5437809567 0.7947055860  Biso 1.0 Th
Th17 1.0000000000 0.4562111513 0.5437809567 0.7947055860  Biso 1.0 Th
Th18 1.0000000000 0.5437866844 0.0875733688 0.2946930529  Biso 1.0 Th
Th19 1.0000000000 0.9124301946 0.4562190433 0.2947055860  Biso 1.0 Th
Th20 1.0000000000 0.5437888487 0.4562190433 0.2947055860  Biso 1.0 Th
