# AFLOW.org Repositories
# Al3C1Zr5 #193 - (Al3C1Zr5_ICSD_606294) -
data_Al3C1Zr5
_pd_phase_name Al3C1Zr5
_cell_length_a  8.3423485250
_cell_length_b  8.3423485250
_cell_length_c  5.6254446575
_cell_angle_alpha  90.0000000000
_cell_angle_beta  90.0000000000
_cell_angle_gamma  120.0000000000
_symmetry_space_group_name_H-M  'P1'
_symmetry_Int_Tables_Number  1
loop_
_symmetry_equiv_pos_site_id
_symmetry_equiv_pos_as_xyz
  1  x,y,z
loop_
 _atom_site_label
 _atom_site_occupancy
 _atom_site_fract_x
 _atom_site_fract_y
 _atom_site_fract_z
 _atom_site_thermal_displace_type
 _atom_site_B_iso_or_equiv
 _atom_site_type_symbol
Al1 1.0000000000 0.0000000000 0.3998039141 0.2500000000  Biso 1.0 Al
Al2 1.0000000000 0.6001960859 0.6001960859 0.2500000000  Biso 1.0 Al
Al3 1.0000000000 0.3998143152 0.0000000000 0.2500000000  Biso 1.0 Al
Al4 1.0000000000 0.0000000000 0.6001960859 0.7500000000  Biso 1.0 Al
Al5 1.0000000000 0.3998039141 0.3998039141 0.7500000000  Biso 1.0 Al
Al6 1.0000000000 0.6001856848 0.0000000000 0.7500000000  Biso 1.0 Al
C7 1.0000000000 0.0000000000 0.0000000000 0.0000000000  Biso 1.0 C
C8 1.0000000000 0.0000000000 0.0000000000 0.5000000000  Biso 1.0 C
Zr9 1.0000000000 0.6666688063 0.3333376125 0.0000000000  Biso 1.0 Zr
Zr10 1.0000000000 0.3333311937 0.6666623875 0.5000000000  Biso 1.0 Zr
Zr11 1.0000000000 0.3333311937 0.6666623875 0.0000000000  Biso 1.0 Zr
Zr12 1.0000000000 0.6666688063 0.3333376125 0.5000000000  Biso 1.0 Zr
Zr13 1.0000000000 0.0000000000 0.7764704454 0.2500000000  Biso 1.0 Zr
Zr14 1.0000000000 0.2235295546 0.2235295546 0.2500000000  Biso 1.0 Zr
Zr15 1.0000000000 0.7764725561 0.0000000000 0.2500000000  Biso 1.0 Zr
Zr16 1.0000000000 0.0000000000 0.2235295546 0.7500000000  Biso 1.0 Zr
Zr17 1.0000000000 0.7764704454 0.7764704454 0.7500000000  Biso 1.0 Zr
Zr18 1.0000000000 0.2235274439 0.0000000000 0.7500000000  Biso 1.0 Zr
