# AFLOW.org Repositories
# As1Au1Ba1 #194 - (As1Au1Ba1_ICSD_420341)
data_As1Au1Ba1
_pd_phase_name As1Au1Ba1
_cell_length_a  4.6241915444
_cell_length_b  4.6241915444
_cell_length_c  9.1219481573
_cell_angle_alpha  90.0000000000
_cell_angle_beta  90.0000000000
_cell_angle_gamma  120.0000000000
_symmetry_space_group_name_H-M  'P1'
_symmetry_Int_Tables_Number  1
loop_
_symmetry_equiv_pos_site_id
_symmetry_equiv_pos_as_xyz
  1  x,y,z
loop_
 _atom_site_label
 _atom_site_occupancy
 _atom_site_fract_x
 _atom_site_fract_y
 _atom_site_fract_z
 _atom_site_thermal_displace_type
 _atom_site_B_iso_or_equiv
 _atom_site_type_symbol
As1 1.0000000000 0.3333138901 0.6666861099 0.2500000000  Biso 1.0 As
As2 1.0000000000 0.6666861099 0.3333138901 0.7500000000  Biso 1.0 As
Au3 1.0000000000 0.3333125227 0.6666874773 0.7500000000  Biso 1.0 Au
Au4 1.0000000000 0.6666874773 0.3333125227 0.2500000000  Biso 1.0 Au
Ba5 1.0000000000 0.0000000000 0.0000000000 0.0000000000  Biso 1.0 Ba
Ba6 1.0000000000 0.0000000000 0.0000000000 0.5000000000  Biso 1.0 Ba
