# AFLOW.org Repositories
# As1Hf1Ru1 #189 - (As1Hf1Ru1_ICSD_610654)
data_As1Hf1Ru1
_pd_phase_name As1Hf1Ru1
_cell_length_a  6.5880917592
_cell_length_b  6.5880917592
_cell_length_c  3.8989685198
_cell_angle_alpha  90.0000000000
_cell_angle_beta  90.0000000000
_cell_angle_gamma  120.0000000000
_symmetry_space_group_name_H-M  'P1'
_symmetry_Int_Tables_Number  1
loop_
_symmetry_equiv_pos_site_id
_symmetry_equiv_pos_as_xyz
  1  x,y,z
loop_
 _atom_site_label
 _atom_site_occupancy
 _atom_site_fract_x
 _atom_site_fract_y
 _atom_site_fract_z
 _atom_site_thermal_displace_type
 _atom_site_B_iso_or_equiv
 _atom_site_type_symbol
As1 1.0000000000 0.6666736054 0.3333342802 0.0000000000  Biso 1.0 As
As2 1.0000000000 0.3333393252 0.6666657198 0.0000000000  Biso 1.0 As
As3 1.0000000000 0.0000000000 0.0000000000 0.5000000000  Biso 1.0 As
Hf4 1.0000000000 0.0000000000 0.4178519953 0.5000000000  Biso 1.0 Hf
Hf5 1.0000000000 0.5821480047 0.5821480047 0.5000000000  Biso 1.0 Hf
Hf6 1.0000000000 0.4178960694 0.0000000000 0.5000000000  Biso 1.0 Hf
Ru7 1.0000000000 0.0000000000 0.7536828401 0.0000000000  Biso 1.0 Ru
Ru8 1.0000000000 0.2463171599 0.2463171599 0.0000000000  Biso 1.0 Ru
Ru9 1.0000000000 0.7536433976 0.0000000000 0.0000000000  Biso 1.0 Ru
