# AFLOW.org Repositories
# Au3K1Sn3 #59.2 - (Au3K1Sn3_ICSD_249645) 
data_Au3K1Sn3
_pd_phase_name Au3K1Sn3
_cell_length_a  4.8229436996
_cell_length_b  7.8875772524
_cell_length_c  9.5645625240
_cell_angle_alpha  90.0000000000
_cell_angle_beta  90.0000000000
_cell_angle_gamma  90.0000000000
_symmetry_space_group_name_H-M  'P1'
_symmetry_Int_Tables_Number  1
loop_
_symmetry_equiv_pos_site_id
_symmetry_equiv_pos_as_xyz
  1  x,y,z
loop_
 _atom_site_label
 _atom_site_occupancy
 _atom_site_fract_x
 _atom_site_fract_y
 _atom_site_fract_z
 _atom_site_thermal_displace_type
 _atom_site_B_iso_or_equiv
 _atom_site_type_symbol
Au1 1.0000000000 0.2500000000 0.2500000000 0.0710527666  Biso 1.0 Au
Au2 1.0000000000 0.7500000000 0.7500000000 0.9289472334  Biso 1.0 Au
Au3 1.0000000000 0.2500000000 0.5335991657 0.5813168572  Biso 1.0 Au
Au4 1.0000000000 0.2500000000 0.9664008343 0.5813168572  Biso 1.0 Au
Au5 1.0000000000 0.7500000000 0.0335991657 0.4186831428  Biso 1.0 Au
Au6 1.0000000000 0.7500000000 0.4664008343 0.4186831428  Biso 1.0 Au
K7 1.0000000000 0.2500000000 0.7500000000 0.2648812762  Biso 1.0 K
K8 1.0000000000 0.7500000000 0.2500000000 0.7351187238  Biso 1.0 K
Sn9 1.0000000000 0.2500000000 0.2500000000 0.3828684921  Biso 1.0 Sn
Sn10 1.0000000000 0.7500000000 0.7500000000 0.6171315079  Biso 1.0 Sn
Sn11 1.0000000000 0.2500000000 0.5484925727 0.8781359440  Biso 1.0 Sn
Sn12 1.0000000000 0.2500000000 0.9515074273 0.8781359440  Biso 1.0 Sn
Sn13 1.0000000000 0.7500000000 0.0484925727 0.1218640560  Biso 1.0 Sn
Sn14 1.0000000000 0.7500000000 0.4515074273 0.1218640560  Biso 1.0 Sn
