# AFLOW.org Repositories
# B1N1 #136 - (B1N1_ICSD_162875) - B1N1 [B
data_B1N1
_pd_phase_name B1N1
_cell_length_a  9.1293973353
_cell_length_b  9.1293973353
_cell_length_c  2.6228770478
_cell_angle_alpha  90.0000000000
_cell_angle_beta  90.0000000000
_cell_angle_gamma  90.0000000000
_symmetry_space_group_name_H-M  'P1'
_symmetry_Int_Tables_Number  1
loop_
_symmetry_equiv_pos_site_id
_symmetry_equiv_pos_as_xyz
  1  x,y,z
loop_
 _atom_site_label
 _atom_site_occupancy
 _atom_site_fract_x
 _atom_site_fract_y
 _atom_site_fract_z
 _atom_site_thermal_displace_type
 _atom_site_B_iso_or_equiv
 _atom_site_type_symbol
B1 1.0000000000 0.7160277779 0.0000000000 0.5000000000  Biso 1.0 B
B2 1.0000000000 0.2839722221 0.0000000000 0.5000000000  Biso 1.0 B
B3 1.0000000000 0.0000000000 0.2839722221 0.0000000000  Biso 1.0 B
B4 1.0000000000 0.0000000000 0.7160277779 0.0000000000  Biso 1.0 B
N5 1.0000000000 0.0000000000 0.7157724162 0.5000000000  Biso 1.0 N
N6 1.0000000000 0.0000000000 0.2842275838 0.5000000000  Biso 1.0 N
N7 1.0000000000 0.7157724162 0.0000000000 0.0000000000  Biso 1.0 N
N8 1.0000000000 0.2842275838 0.0000000000 0.0000000000  Biso 1.0 N
