# AFLOW.org Repositories
# Ba3Ge5 #63 - (Ba3Ge5_ICSD_167163) - Ba3G
data_Ba3Ge5
_pd_phase_name Ba3Ge5
_cell_length_a  6.7751830263
_cell_length_b  6.7751830263
_cell_length_c  10.4553150566
_cell_angle_alpha  90.0000000000
_cell_angle_beta  90.0000000000
_cell_angle_gamma  100.4560241691
_symmetry_space_group_name_H-M  'P1'
_symmetry_Int_Tables_Number  1
loop_
_symmetry_equiv_pos_site_id
_symmetry_equiv_pos_as_xyz
  1  x,y,z
loop_
 _atom_site_label
 _atom_site_occupancy
 _atom_site_fract_x
 _atom_site_fract_y
 _atom_site_fract_z
 _atom_site_thermal_displace_type
 _atom_site_B_iso_or_equiv
 _atom_site_type_symbol
Ba1 1.0000000000 0.6547962444 0.6547962444 0.7500000000  Biso 1.0 Ba
Ba2 1.0000000000 0.3452037556 0.3452037556 0.2500000000  Biso 1.0 Ba
Ba3 1.0000000000 0.7899103744 0.2100896256 0.0000000000  Biso 1.0 Ba
Ba4 1.0000000000 0.2100896256 0.7899103744 0.5000000000  Biso 1.0 Ba
Ba5 1.0000000000 0.2100896256 0.7899103744 0.0000000000  Biso 1.0 Ba
Ba6 1.0000000000 0.7899103744 0.2100896256 0.5000000000  Biso 1.0 Ba
Ge7 1.0000000000 0.1055371136 0.4661221233 0.7500000000  Biso 1.0 Ge
Ge8 1.0000000000 0.8944628864 0.5338778767 0.2500000000  Biso 1.0 Ge
Ge9 1.0000000000 0.4661221233 0.1055371136 0.7500000000  Biso 1.0 Ge
Ge10 1.0000000000 0.5338778767 0.8944628864 0.2500000000  Biso 1.0 Ge
Ge11 1.0000000000 0.0690181467 0.0690181467 0.7500000000  Biso 1.0 Ge
Ge12 1.0000000000 0.9309818533 0.9309818533 0.2500000000  Biso 1.0 Ge
Ge13 1.0000000000 0.2968017300 0.2968017300 0.9281991775  Biso 1.0 Ge
Ge14 1.0000000000 0.7031982700 0.7031982700 0.4281991775  Biso 1.0 Ge
Ge15 1.0000000000 0.2968017300 0.2968017300 0.5718008225  Biso 1.0 Ge
Ge16 1.0000000000 0.7031982700 0.7031982700 0.0718008225  Biso 1.0 Ge
