# AFLOW.org Repositories
# Bi1Rb3Se3 #198 - (Bi1Rb3Se3_ICSD_85411) 
data_Bi1Rb3Se3
_pd_phase_name Bi1Rb3Se3
_cell_length_a  10.3620621126
_cell_length_b  10.3620621126
_cell_length_c  10.3620621126
_cell_angle_alpha  90.0000000000
_cell_angle_beta  90.0000000000
_cell_angle_gamma  90.0000000000
_symmetry_space_group_name_H-M  'P1'
_symmetry_Int_Tables_Number  1
loop_
_symmetry_equiv_pos_site_id
_symmetry_equiv_pos_as_xyz
  1  x,y,z
loop_
 _atom_site_label
 _atom_site_occupancy
 _atom_site_fract_x
 _atom_site_fract_y
 _atom_site_fract_z
 _atom_site_thermal_displace_type
 _atom_site_B_iso_or_equiv
 _atom_site_type_symbol
Bi1 1.0000000000 0.9695840939 0.9695840939 0.0304159061  Biso 1.0 Bi
Bi2 1.0000000000 0.5304159061 0.0304159061 0.5304159061  Biso 1.0 Bi
Bi3 1.0000000000 0.0304159061 0.4695840939 0.4695840939  Biso 1.0 Bi
Bi4 1.0000000000 0.4695840939 0.5304159061 0.9695840939  Biso 1.0 Bi
Rb5 1.0000000000 0.6798446878 0.6798446878 0.3201553122  Biso 1.0 Rb
Rb6 1.0000000000 0.8201553122 0.3201553122 0.8201553122  Biso 1.0 Rb
Rb7 1.0000000000 0.3201553122 0.1798446878 0.1798446878  Biso 1.0 Rb
Rb8 1.0000000000 0.1798446878 0.8201553122 0.6798446878  Biso 1.0 Rb
Rb9 1.0000000000 0.4278738687 0.4278738687 0.5721261313  Biso 1.0 Rb
Rb10 1.0000000000 0.0721261313 0.5721261313 0.0721261313  Biso 1.0 Rb
Rb11 1.0000000000 0.5721261313 0.9278738687 0.9278738687  Biso 1.0 Rb
Rb12 1.0000000000 0.9278738687 0.0721261313 0.4278738687  Biso 1.0 Rb
Rb13 1.0000000000 0.1875531498 0.1875531498 0.8124468502  Biso 1.0 Rb
Rb14 1.0000000000 0.3124468502 0.8124468502 0.3124468502  Biso 1.0 Rb
Rb15 1.0000000000 0.8124468502 0.6875531498 0.6875531498  Biso 1.0 Rb
Rb16 1.0000000000 0.6875531498 0.3124468502 0.1875531498  Biso 1.0 Rb
Se17 1.0000000000 0.7830569934 0.3927294522 0.4972104497  Biso 1.0 Se
Se18 1.0000000000 0.7169430066 0.6072705478 0.9972104497  Biso 1.0 Se
Se19 1.0000000000 0.2169430066 0.8927294522 0.0027895503  Biso 1.0 Se
Se20 1.0000000000 0.2830569934 0.1072705478 0.5027895503  Biso 1.0 Se
Se21 1.0000000000 0.5027895503 0.7830569934 0.6072705478  Biso 1.0 Se
Se22 1.0000000000 0.0027895503 0.7169430066 0.3927294522  Biso 1.0 Se
Se23 1.0000000000 0.9972104497 0.2169430066 0.1072705478  Biso 1.0 Se
Se24 1.0000000000 0.4972104497 0.2830569934 0.8927294522  Biso 1.0 Se
Se25 1.0000000000 0.3927294522 0.5027895503 0.2169430066  Biso 1.0 Se
Se26 1.0000000000 0.6072705478 0.0027895503 0.2830569934  Biso 1.0 Se
Se27 1.0000000000 0.8927294522 0.9972104497 0.7830569934  Biso 1.0 Se
Se28 1.0000000000 0.1072705478 0.4972104497 0.7169430066  Biso 1.0 Se
