# AFLOW.org Repositories
# Ca5H1Sn3 #140 - (Ca5H1Sn3_ICSD_165190) -
data_Ca5H1Sn3
_pd_phase_name Ca5H1Sn3
_cell_length_a  9.4690976844
_cell_length_b  9.4690976844
_cell_length_c  9.4690976844
_cell_angle_alpha  128.4408441799
_cell_angle_beta  128.4408441799
_cell_angle_gamma  75.9119584239
_symmetry_space_group_name_H-M  'P1'
_symmetry_Int_Tables_Number  1
loop_
_symmetry_equiv_pos_site_id
_symmetry_equiv_pos_as_xyz
  1  x,y,z
loop_
 _atom_site_label
 _atom_site_occupancy
 _atom_site_fract_x
 _atom_site_fract_y
 _atom_site_fract_z
 _atom_site_thermal_displace_type
 _atom_site_B_iso_or_equiv
 _atom_site_type_symbol
Ca1 1.0000000000 0.0000000000 0.0000000000 0.0000000000  Biso 1.0 Ca
Ca2 1.0000000000 0.5000000000 0.5000000000 0.0000000000  Biso 1.0 Ca
Ca3 1.0000000000 0.6872811974 0.1872811974 0.1784671651  Biso 1.0 Ca
Ca4 1.0000000000 0.0088140323 0.5088140323 0.8215328349  Biso 1.0 Ca
Ca5 1.0000000000 0.5088140323 0.6872811974 0.5000000000  Biso 1.0 Ca
Ca6 1.0000000000 0.1872811974 0.0088140323 0.5000000000  Biso 1.0 Ca
Ca7 1.0000000000 0.8127188026 0.9911859677 0.5000000000  Biso 1.0 Ca
Ca8 1.0000000000 0.4911859677 0.3127188026 0.5000000000  Biso 1.0 Ca
Ca9 1.0000000000 0.9911859677 0.4911859677 0.1784671651  Biso 1.0 Ca
Ca10 1.0000000000 0.3127188026 0.8127188026 0.8215328349  Biso 1.0 Ca
H11 1.0000000000 0.7500000000 0.2500000000 0.5000000000  Biso 1.0 H
H12 1.0000000000 0.2500000000 0.7500000000 0.5000000000  Biso 1.0 H
Sn13 1.0000000000 0.7500000000 0.7500000000 0.0000000000  Biso 1.0 Sn
Sn14 1.0000000000 0.2500000000 0.2500000000 0.0000000000  Biso 1.0 Sn
Sn15 1.0000000000 0.6284660946 0.1284660946 0.7569321893  Biso 1.0 Sn
Sn16 1.0000000000 0.3715339054 0.8715339054 0.2430678107  Biso 1.0 Sn
Sn17 1.0000000000 0.8715339054 0.6284660946 0.5000000000  Biso 1.0 Sn
Sn18 1.0000000000 0.1284660946 0.3715339054 0.5000000000  Biso 1.0 Sn
