# AFLOW.org Repositories
# Cd1O1 #186 - (Cd1O1_ICSD_161837) - Cd1O1
data_Cd1O1
_pd_phase_name Cd1O1
_cell_length_a  3.6728471106
_cell_length_b  3.6728471106
_cell_length_c  5.8053458353
_cell_angle_alpha  90.0000000000
_cell_angle_beta  90.0000000000
_cell_angle_gamma  120.0000000000
_symmetry_space_group_name_H-M  'P1'
_symmetry_Int_Tables_Number  1
loop_
_symmetry_equiv_pos_site_id
_symmetry_equiv_pos_as_xyz
  1  x,y,z
loop_
 _atom_site_label
 _atom_site_occupancy
 _atom_site_fract_x
 _atom_site_fract_y
 _atom_site_fract_z
 _atom_site_thermal_displace_type
 _atom_site_B_iso_or_equiv
 _atom_site_type_symbol
Cd1 1.0000000000 0.3333217144 0.6666782856 0.0000000000  Biso 1.0 Cd
Cd2 1.0000000000 0.6666782856 0.3333217144 0.4996454797  Biso 1.0 Cd
O3 1.0000000000 0.3333219963 0.6666780037 0.3852545203  Biso 1.0 O
O4 1.0000000000 0.6666780037 0.3333219963 0.8852545203  Biso 1.0 O
