# AFLOW.org Repositories
# Cr1F3K1 #140 - (Cr1F3K1_ICSD_169765) - C
data_Cr1F3K1
_pd_phase_name Cr1F3K1
_cell_length_a  5.9854433039
_cell_length_b  5.9854433039
_cell_length_c  5.9854433039
_cell_angle_alpha  118.1797681055
_cell_angle_beta  118.1797681055
_cell_angle_gamma  93.1827515079
_symmetry_space_group_name_H-M  'P1'
_symmetry_Int_Tables_Number  1
loop_
_symmetry_equiv_pos_site_id
_symmetry_equiv_pos_as_xyz
  1  x,y,z
loop_
 _atom_site_label
 _atom_site_occupancy
 _atom_site_fract_x
 _atom_site_fract_y
 _atom_site_fract_z
 _atom_site_thermal_displace_type
 _atom_site_B_iso_or_equiv
 _atom_site_type_symbol
Cr1 1.0000000000 0.5000000000 0.0000000000 0.5000000000  Biso 1.0 Cr
Cr2 1.0000000000 0.0000000000 0.5000000000 0.5000000000  Biso 1.0 Cr
F3 1.0000000000 0.2500000000 0.7500000000 0.5000000000  Biso 1.0 F
F4 1.0000000000 0.7500000000 0.2500000000 0.5000000000  Biso 1.0 F
F5 1.0000000000 0.2686304391 0.2313695609 0.5000000000  Biso 1.0 F
F6 1.0000000000 0.7313695609 0.7686304391 0.5000000000  Biso 1.0 F
F7 1.0000000000 0.7686304391 0.2686304391 0.0372608781  Biso 1.0 F
F8 1.0000000000 0.2313695609 0.7313695609 0.9627391219  Biso 1.0 F
K9 1.0000000000 0.7500000000 0.7500000000 0.0000000000  Biso 1.0 K
K10 1.0000000000 0.2500000000 0.2500000000 0.0000000000  Biso 1.0 K
