# AFLOW.org Repositories
# Cs1H3Mg1 #166.2 - (Cs1H3Mg1_ICSD_162260)
data_Cs1H3Mg1
_pd_phase_name Cs1H3Mg1
_cell_length_a  8.2596622043
_cell_length_b  8.2596622043
_cell_length_c  8.2596622043
_cell_angle_alpha  44.3139634765
_cell_angle_beta  44.3139634765
_cell_angle_gamma  44.3139634765
_symmetry_space_group_name_H-M  'P1'
_symmetry_Int_Tables_Number  1
loop_
_symmetry_equiv_pos_site_id
_symmetry_equiv_pos_as_xyz
  1  x,y,z
loop_
 _atom_site_label
 _atom_site_occupancy
 _atom_site_fract_x
 _atom_site_fract_y
 _atom_site_fract_z
 _atom_site_thermal_displace_type
 _atom_site_B_iso_or_equiv
 _atom_site_type_symbol
Cs1 1.0000000000 0.7862364385 0.7862364385 0.7862364385  Biso 1.0 Cs
Cs2 1.0000000000 0.2137635615 0.2137635615 0.2137635615  Biso 1.0 Cs
Cs3 1.0000000000 0.0000000000 0.0000000000 0.0000000000  Biso 1.0 Cs
H4 1.0000000000 0.3035208761 0.7154414658 0.3035208761  Biso 1.0 H
H5 1.0000000000 0.7154414658 0.3035208761 0.3035208761  Biso 1.0 H
H6 1.0000000000 0.3035208761 0.3035208761 0.7154414658  Biso 1.0 H
H7 1.0000000000 0.2845585342 0.6964791239 0.6964791239  Biso 1.0 H
H8 1.0000000000 0.6964791239 0.2845585342 0.6964791239  Biso 1.0 H
H9 1.0000000000 0.6964791239 0.6964791239 0.2845585342  Biso 1.0 H
H10 1.0000000000 0.5000000000 0.0000000000 0.5000000000  Biso 1.0 H
H11 1.0000000000 0.0000000000 0.5000000000 0.5000000000  Biso 1.0 H
H12 1.0000000000 0.5000000000 0.5000000000 0.0000000000  Biso 1.0 H
Mg13 1.0000000000 0.6209301929 0.6209301929 0.6209301929  Biso 1.0 Mg
Mg14 1.0000000000 0.3790698071 0.3790698071 0.3790698071  Biso 1.0 Mg
Mg15 1.0000000000 0.5000000000 0.5000000000 0.5000000000  Biso 1.0 Mg
