# AFLOW.org Repositories
# Er1Ga2Pd1 #63 - (Er1Ga2Pd1_ICSD_600162) 
data_Er1Ga2Pd1
_pd_phase_name Er1Ga2Pd1
_cell_length_a  5.4849773600
_cell_length_b  5.4849773600
_cell_length_c  6.6269090712
_cell_angle_alpha  90.0000000000
_cell_angle_beta  90.0000000000
_cell_angle_gamma  132.6153158668
_symmetry_space_group_name_H-M  'P1'
_symmetry_Int_Tables_Number  1
loop_
_symmetry_equiv_pos_site_id
_symmetry_equiv_pos_as_xyz
  1  x,y,z
loop_
 _atom_site_label
 _atom_site_occupancy
 _atom_site_fract_x
 _atom_site_fract_y
 _atom_site_fract_z
 _atom_site_thermal_displace_type
 _atom_site_B_iso_or_equiv
 _atom_site_type_symbol
Er1 1.0000000000 0.4125833281 0.5874166719 0.7500000000  Biso 1.0 Er
Er2 1.0000000000 0.5874166719 0.4125833281 0.2500000000  Biso 1.0 Er
Ga3 1.0000000000 0.1275558134 0.8724441866 0.9472678288  Biso 1.0 Ga
Ga4 1.0000000000 0.8724441866 0.1275558134 0.4472678288  Biso 1.0 Ga
Ga5 1.0000000000 0.1275558134 0.8724441866 0.5527321712  Biso 1.0 Ga
Ga6 1.0000000000 0.8724441866 0.1275558134 0.0527321712  Biso 1.0 Ga
Pd7 1.0000000000 0.7012677969 0.2987322031 0.7500000000  Biso 1.0 Pd
Pd8 1.0000000000 0.2987322031 0.7012677969 0.2500000000  Biso 1.0 Pd
