# AFLOW.org Repositories
# Ga1Sn1Sr1 #194 - (Ga1Sn1Sr1_ICSD_166387)
data_Ga1Sn1Sr1
_pd_phase_name Ga1Sn1Sr1
_cell_length_a  4.6462876969
_cell_length_b  4.6462876969
_cell_length_c  18.7302818098
_cell_angle_alpha  90.0000000000
_cell_angle_beta  90.0000000000
_cell_angle_gamma  120.0000000000
_symmetry_space_group_name_H-M  'P1'
_symmetry_Int_Tables_Number  1
loop_
_symmetry_equiv_pos_site_id
_symmetry_equiv_pos_as_xyz
  1  x,y,z
loop_
 _atom_site_label
 _atom_site_occupancy
 _atom_site_fract_x
 _atom_site_fract_y
 _atom_site_fract_z
 _atom_site_thermal_displace_type
 _atom_site_B_iso_or_equiv
 _atom_site_type_symbol
Ga1 1.0000000000 0.3333210348 0.6666605174 0.1623083099  Biso 1.0 Ga
Ga2 1.0000000000 0.6666789652 0.3333394826 0.6623083099  Biso 1.0 Ga
Ga3 1.0000000000 0.6666789652 0.3333394826 0.8376916901  Biso 1.0 Ga
Ga4 1.0000000000 0.3333210348 0.6666605174 0.3376916901  Biso 1.0 Ga
Sn5 1.0000000000 0.3332296233 0.6666148116 0.6150738626  Biso 1.0 Sn
Sn6 1.0000000000 0.6667703767 0.3333851884 0.1150738626  Biso 1.0 Sn
Sn7 1.0000000000 0.6667703767 0.3333851884 0.3849261374  Biso 1.0 Sn
Sn8 1.0000000000 0.3332296233 0.6666148116 0.8849261374  Biso 1.0 Sn
Sr9 1.0000000000 0.0000000000 0.0000000000 0.0000000000  Biso 1.0 Sr
Sr10 1.0000000000 0.0000000000 0.0000000000 0.5000000000  Biso 1.0 Sr
Sr11 1.0000000000 0.0000000000 0.0000000000 0.2500000000  Biso 1.0 Sr
Sr12 1.0000000000 0.0000000000 0.0000000000 0.7500000000  Biso 1.0 Sr
