# AFLOW.org Repositories
# Ge1 #194 - (Ge1_ICSD_167204) - Ge1 [Ge1]
data_Ge1
_pd_phase_name Ge1
_cell_length_a  4.0525457949
_cell_length_b  4.0525457949
_cell_length_c  13.3032763174
_cell_angle_alpha  90.0000000000
_cell_angle_beta  90.0000000000
_cell_angle_gamma  120.0000000000
_symmetry_space_group_name_H-M  'P1'
_symmetry_Int_Tables_Number  1
loop_
_symmetry_equiv_pos_site_id
_symmetry_equiv_pos_as_xyz
  1  x,y,z
loop_
 _atom_site_label
 _atom_site_occupancy
 _atom_site_fract_x
 _atom_site_fract_y
 _atom_site_fract_z
 _atom_site_thermal_displace_type
 _atom_site_B_iso_or_equiv
 _atom_site_type_symbol
Ge1 1.0000000000 0.0000000000 0.0000000000 0.0931931407  Biso 1.0 Ge
Ge2 1.0000000000 0.0000000000 0.0000000000 0.5931931407  Biso 1.0 Ge
Ge3 1.0000000000 0.0000000000 0.0000000000 0.9068068593  Biso 1.0 Ge
Ge4 1.0000000000 0.0000000000 0.0000000000 0.4068068593  Biso 1.0 Ge
Ge5 1.0000000000 0.6666834767 0.3333669533 0.1558386695  Biso 1.0 Ge
Ge6 1.0000000000 0.3333165233 0.6666330467 0.6558386695  Biso 1.0 Ge
Ge7 1.0000000000 0.3333165233 0.6666330467 0.8441613305  Biso 1.0 Ge
Ge8 1.0000000000 0.6666834767 0.3333669533 0.3441613305  Biso 1.0 Ge
