# AFLOW.org Repositories
# Ge1Y1Zn1 #194 - (Ge1Y1Zn1_ICSD_163345) -
data_Ge1Y1Zn1
_pd_phase_name Ge1Y1Zn1
_cell_length_a  4.2303309569
_cell_length_b  4.2303309569
_cell_length_c  15.7017934988
_cell_angle_alpha  90.0000000000
_cell_angle_beta  90.0000000000
_cell_angle_gamma  120.0000000000
_symmetry_space_group_name_H-M  'P1'
_symmetry_Int_Tables_Number  1
loop_
_symmetry_equiv_pos_site_id
_symmetry_equiv_pos_as_xyz
  1  x,y,z
loop_
 _atom_site_label
 _atom_site_occupancy
 _atom_site_fract_x
 _atom_site_fract_y
 _atom_site_fract_z
 _atom_site_thermal_displace_type
 _atom_site_B_iso_or_equiv
 _atom_site_type_symbol
Ge1 1.0000000000 0.6666701537 0.3333403073 0.6149204938  Biso 1.0 Ge
Ge2 1.0000000000 0.3333298463 0.6666596927 0.1149204938  Biso 1.0 Ge
Ge3 1.0000000000 0.3333298463 0.6666596927 0.3850795062  Biso 1.0 Ge
Ge4 1.0000000000 0.6666701537 0.3333403073 0.8850795062  Biso 1.0 Ge
Y5 1.0000000000 0.0000000000 0.0000000000 0.0000000000  Biso 1.0 Y
Y6 1.0000000000 0.0000000000 0.0000000000 0.5000000000  Biso 1.0 Y
Y7 1.0000000000 0.0000000000 0.0000000000 0.2500000000  Biso 1.0 Y
Y8 1.0000000000 0.0000000000 0.0000000000 0.7500000000  Biso 1.0 Y
Zn9 1.0000000000 0.6666754744 0.3333509488 0.1457879797  Biso 1.0 Zn
Zn10 1.0000000000 0.3333245256 0.6666490512 0.6457879797  Biso 1.0 Zn
Zn11 1.0000000000 0.3333245256 0.6666490512 0.8542120203  Biso 1.0 Zn
Zn12 1.0000000000 0.6666754744 0.3333509488 0.3542120203  Biso 1.0 Zn
