# AFLOW.org Repositories
# Ho1P2Ru2 #139 - (Ho1P2Ru2_ICSD_602102) -
data_Ho1P2Ru2
_pd_phase_name Ho1P2Ru2
_cell_length_a  5.5444429264
_cell_length_b  5.5444429264
_cell_length_c  5.5444429264
_cell_angle_alpha  137.2260122708
_cell_angle_beta  137.2260122708
_cell_angle_gamma  62.0904890797
_symmetry_space_group_name_H-M  'P1'
_symmetry_Int_Tables_Number  1
loop_
_symmetry_equiv_pos_site_id
_symmetry_equiv_pos_as_xyz
  1  x,y,z
loop_
 _atom_site_label
 _atom_site_occupancy
 _atom_site_fract_x
 _atom_site_fract_y
 _atom_site_fract_z
 _atom_site_thermal_displace_type
 _atom_site_B_iso_or_equiv
 _atom_site_type_symbol
Ho1 1.0000000000 0.0000000000 0.0000000000 0.0000000000  Biso 1.0 Ho
P2 1.0000000000 0.6247859290 0.6247859290 0.0000000000  Biso 1.0 P
P3 1.0000000000 0.3752140710 0.3752140710 0.0000000000  Biso 1.0 P
Ru4 1.0000000000 0.7500000000 0.2500000000 0.5000000000  Biso 1.0 Ru
Ru5 1.0000000000 0.2500000000 0.7500000000 0.5000000000  Biso 1.0 Ru
