# AFLOW.org Repositories
# Ir4Sn13Yb3 #223 - (Ir4Sn13Yb3_ICSD_64106
data_Ir4Sn13Yb3
_pd_phase_name Ir4Sn13Yb3
_cell_length_a  9.9083647778
_cell_length_b  9.9083647778
_cell_length_c  9.9083647778
_cell_angle_alpha  90.0000000000
_cell_angle_beta  90.0000000000
_cell_angle_gamma  90.0000000000
_symmetry_space_group_name_H-M  'P1'
_symmetry_Int_Tables_Number  1
loop_
_symmetry_equiv_pos_site_id
_symmetry_equiv_pos_as_xyz
  1  x,y,z
loop_
 _atom_site_label
 _atom_site_occupancy
 _atom_site_fract_x
 _atom_site_fract_y
 _atom_site_fract_z
 _atom_site_thermal_displace_type
 _atom_site_B_iso_or_equiv
 _atom_site_type_symbol
Ir1 1.0000000000 0.7500000000 0.7500000000 0.2500000000  Biso 1.0 Ir
Ir2 1.0000000000 0.2500000000 0.2500000000 0.2500000000  Biso 1.0 Ir
Ir3 1.0000000000 0.2500000000 0.7500000000 0.7500000000  Biso 1.0 Ir
Ir4 1.0000000000 0.7500000000 0.2500000000 0.7500000000  Biso 1.0 Ir
Ir5 1.0000000000 0.2500000000 0.2500000000 0.7500000000  Biso 1.0 Ir
Ir6 1.0000000000 0.7500000000 0.7500000000 0.7500000000  Biso 1.0 Ir
Ir7 1.0000000000 0.7500000000 0.2500000000 0.2500000000  Biso 1.0 Ir
Ir8 1.0000000000 0.2500000000 0.7500000000 0.2500000000  Biso 1.0 Ir
Sn9 1.0000000000 0.0000000000 0.0000000000 0.0000000000  Biso 1.0 Sn
Sn10 1.0000000000 0.5000000000 0.5000000000 0.5000000000  Biso 1.0 Sn
Sn11 1.0000000000 0.0000000000 0.6957234292 0.1533040865  Biso 1.0 Sn
Sn12 1.0000000000 0.0000000000 0.3042765708 0.1533040865  Biso 1.0 Sn
Sn13 1.0000000000 0.0000000000 0.6957234292 0.8466959135  Biso 1.0 Sn
Sn14 1.0000000000 0.0000000000 0.3042765708 0.8466959135  Biso 1.0 Sn
Sn15 1.0000000000 0.8466959135 0.0000000000 0.3042765708  Biso 1.0 Sn
Sn16 1.0000000000 0.8466959135 0.0000000000 0.6957234292  Biso 1.0 Sn
Sn17 1.0000000000 0.1533040865 0.0000000000 0.3042765708  Biso 1.0 Sn
Sn18 1.0000000000 0.1533040865 0.0000000000 0.6957234292  Biso 1.0 Sn
Sn19 1.0000000000 0.6957234292 0.8466959135 0.0000000000  Biso 1.0 Sn
Sn20 1.0000000000 0.3042765708 0.8466959135 0.0000000000  Biso 1.0 Sn
Sn21 1.0000000000 0.6957234292 0.1533040865 0.0000000000  Biso 1.0 Sn
Sn22 1.0000000000 0.3042765708 0.1533040865 0.0000000000  Biso 1.0 Sn
Sn23 1.0000000000 0.1957234292 0.5000000000 0.3466959135  Biso 1.0 Sn
Sn24 1.0000000000 0.8042765708 0.5000000000 0.3466959135  Biso 1.0 Sn
Sn25 1.0000000000 0.1957234292 0.5000000000 0.6533040865  Biso 1.0 Sn
Sn26 1.0000000000 0.8042765708 0.5000000000 0.6533040865  Biso 1.0 Sn
Sn27 1.0000000000 0.5000000000 0.3466959135 0.1957234292  Biso 1.0 Sn
Sn28 1.0000000000 0.5000000000 0.3466959135 0.8042765708  Biso 1.0 Sn
Sn29 1.0000000000 0.5000000000 0.6533040865 0.1957234292  Biso 1.0 Sn
Sn30 1.0000000000 0.5000000000 0.6533040865 0.8042765708  Biso 1.0 Sn
Sn31 1.0000000000 0.3466959135 0.1957234292 0.5000000000  Biso 1.0 Sn
Sn32 1.0000000000 0.3466959135 0.8042765708 0.5000000000  Biso 1.0 Sn
Sn33 1.0000000000 0.6533040865 0.1957234292 0.5000000000  Biso 1.0 Sn
Sn34 1.0000000000 0.6533040865 0.8042765708 0.5000000000  Biso 1.0 Sn
Yb35 1.0000000000 0.7500000000 0.5000000000 0.0000000000  Biso 1.0 Yb
Yb36 1.0000000000 0.2500000000 0.5000000000 0.0000000000  Biso 1.0 Yb
Yb37 1.0000000000 0.0000000000 0.7500000000 0.5000000000  Biso 1.0 Yb
Yb38 1.0000000000 0.0000000000 0.2500000000 0.5000000000  Biso 1.0 Yb
Yb39 1.0000000000 0.5000000000 0.0000000000 0.2500000000  Biso 1.0 Yb
Yb40 1.0000000000 0.5000000000 0.0000000000 0.7500000000  Biso 1.0 Yb
