# AFLOW.org Repositories
# La1N1 #186 - (La1N1_ICSD_162195) - La1N1
data_La1N1
_pd_phase_name La1N1
_cell_length_a  4.2057752656
_cell_length_b  4.2057752656
_cell_length_c  5.9259832663
_cell_angle_alpha  90.0000000000
_cell_angle_beta  90.0000000000
_cell_angle_gamma  120.0000000000
_symmetry_space_group_name_H-M  'P1'
_symmetry_Int_Tables_Number  1
loop_
_symmetry_equiv_pos_site_id
_symmetry_equiv_pos_as_xyz
  1  x,y,z
loop_
 _atom_site_label
 _atom_site_occupancy
 _atom_site_fract_x
 _atom_site_fract_y
 _atom_site_fract_z
 _atom_site_thermal_displace_type
 _atom_site_B_iso_or_equiv
 _atom_site_type_symbol
La1 1.0000000000 0.6666601058 0.3333202117 0.9948808196  Biso 1.0 La
La2 1.0000000000 0.3333398942 0.6666797883 0.4948808196  Biso 1.0 La
N3 1.0000000000 0.6666284260 0.3332568520 0.4151191804  Biso 1.0 N
N4 1.0000000000 0.3333715740 0.6667431480 0.9151191804  Biso 1.0 N
