# AFLOW.org Repositories
# Mg1Se2 #205 - (Mg1Se2_ICSD_642815) - Mg1
data_Mg1Se2
_pd_phase_name Mg1Se2
_cell_length_a  6.5156177472
_cell_length_b  6.5156177472
_cell_length_c  6.5156177472
_cell_angle_alpha  90.0000000000
_cell_angle_beta  90.0000000000
_cell_angle_gamma  90.0000000000
_symmetry_space_group_name_H-M  'P1'
_symmetry_Int_Tables_Number  1
loop_
_symmetry_equiv_pos_site_id
_symmetry_equiv_pos_as_xyz
  1  x,y,z
loop_
 _atom_site_label
 _atom_site_occupancy
 _atom_site_fract_x
 _atom_site_fract_y
 _atom_site_fract_z
 _atom_site_thermal_displace_type
 _atom_site_B_iso_or_equiv
 _atom_site_type_symbol
Mg1 1.0000000000 0.0000000000 0.0000000000 0.0000000000  Biso 1.0 Mg
Mg2 1.0000000000 0.5000000000 0.0000000000 0.5000000000  Biso 1.0 Mg
Mg3 1.0000000000 0.0000000000 0.5000000000 0.5000000000  Biso 1.0 Mg
Mg4 1.0000000000 0.5000000000 0.5000000000 0.0000000000  Biso 1.0 Mg
Se5 1.0000000000 0.3934670341 0.3934670341 0.3934670341  Biso 1.0 Se
Se6 1.0000000000 0.1065329659 0.6065329659 0.8934670341  Biso 1.0 Se
Se7 1.0000000000 0.6065329659 0.8934670341 0.1065329659  Biso 1.0 Se
Se8 1.0000000000 0.8934670341 0.1065329659 0.6065329659  Biso 1.0 Se
Se9 1.0000000000 0.6065329659 0.6065329659 0.6065329659  Biso 1.0 Se
Se10 1.0000000000 0.8934670341 0.3934670341 0.1065329659  Biso 1.0 Se
Se11 1.0000000000 0.3934670341 0.1065329659 0.8934670341  Biso 1.0 Se
Se12 1.0000000000 0.1065329659 0.8934670341 0.3934670341  Biso 1.0 Se
