# AFLOW.org Repositories
# Mg1Y1Zn1 #189 - (Mg1Y1Zn1_ICSD_160907) -
data_Mg1Y1Zn1
_pd_phase_name Mg1Y1Zn1
_cell_length_a  7.5581529488
_cell_length_b  7.5581529488
_cell_length_c  4.1701510731
_cell_angle_alpha  90.0000000000
_cell_angle_beta  90.0000000000
_cell_angle_gamma  120.0000000000
_symmetry_space_group_name_H-M  'P1'
_symmetry_Int_Tables_Number  1
loop_
_symmetry_equiv_pos_site_id
_symmetry_equiv_pos_as_xyz
  1  x,y,z
loop_
 _atom_site_label
 _atom_site_occupancy
 _atom_site_fract_x
 _atom_site_fract_y
 _atom_site_fract_z
 _atom_site_thermal_displace_type
 _atom_site_B_iso_or_equiv
 _atom_site_type_symbol
Mg1 1.0000000000 0.0000000000 0.7534577985 0.5000000000  Biso 1.0 Mg
Mg2 1.0000000000 0.2465422015 0.2465422015 0.5000000000  Biso 1.0 Mg
Mg3 1.0000000000 0.7534582284 0.0000000000 0.5000000000  Biso 1.0 Mg
Y4 1.0000000000 0.0000000000 0.4115184710 0.0000000000  Biso 1.0 Y
Y5 1.0000000000 0.5884815290 0.5884815290 0.0000000000  Biso 1.0 Y
Y6 1.0000000000 0.4115181961 0.0000000000 0.0000000000  Biso 1.0 Y
Zn7 1.0000000000 0.6666673775 0.3333349416 0.5000000000  Biso 1.0 Zn
Zn8 1.0000000000 0.3333324359 0.6666650584 0.5000000000  Biso 1.0 Zn
Zn9 1.0000000000 0.0000000000 0.0000000000 0.0000000000  Biso 1.0 Zn
