# AFLOW.org Repositories
# Mn1P1Rh1 #189 - (Mn1P1Rh1_ICSD_643230) -
data_Mn1P1Rh1
_pd_phase_name Mn1P1Rh1
_cell_length_a  6.3737834533
_cell_length_b  6.3737834533
_cell_length_c  3.6634571402
_cell_angle_alpha  90.0000000000
_cell_angle_beta  90.0000000000
_cell_angle_gamma  120.0000000000
_symmetry_space_group_name_H-M  'P1'
_symmetry_Int_Tables_Number  1
loop_
_symmetry_equiv_pos_site_id
_symmetry_equiv_pos_as_xyz
  1  x,y,z
loop_
 _atom_site_label
 _atom_site_occupancy
 _atom_site_fract_x
 _atom_site_fract_y
 _atom_site_fract_z
 _atom_site_thermal_displace_type
 _atom_site_B_iso_or_equiv
 _atom_site_type_symbol
Mn1 1.0000000000 0.0000000000 0.4137509202 0.5000000000  Biso 1.0 Mn
Mn2 1.0000000000 0.5862490798 0.5862490798 0.5000000000  Biso 1.0 Mn
Mn3 1.0000000000 0.4137506865 0.0000000000 0.5000000000  Biso 1.0 Mn
P4 1.0000000000 0.6666669649 0.3333346241 0.0000000000  Biso 1.0 P
P5 1.0000000000 0.3333323408 0.6666653759 0.0000000000  Biso 1.0 P
P6 1.0000000000 0.0000000000 0.0000000000 0.5000000000  Biso 1.0 P
Rh7 1.0000000000 0.0000000000 0.7460854070 0.0000000000  Biso 1.0 Rh
Rh8 1.0000000000 0.2539145930 0.2539145930 0.0000000000  Biso 1.0 Rh
Rh9 1.0000000000 0.7460835024 0.0000000000 0.0000000000  Biso 1.0 Rh
