# AFLOW.org Repositories
# Nb1S4Tl3 #217 - (Nb1S4Tl3_ICSD_600246) -
data_Nb1S4Tl3
_pd_phase_name Nb1S4Tl3
_cell_length_a  6.7758999700
_cell_length_b  6.7758999700
_cell_length_c  6.7758999700
_cell_angle_alpha  109.4712206345
_cell_angle_beta  109.4712206345
_cell_angle_gamma  109.4712206345
_symmetry_space_group_name_H-M  'P1'
_symmetry_Int_Tables_Number  1
loop_
_symmetry_equiv_pos_site_id
_symmetry_equiv_pos_as_xyz
  1  x,y,z
loop_
 _atom_site_label
 _atom_site_occupancy
 _atom_site_fract_x
 _atom_site_fract_y
 _atom_site_fract_z
 _atom_site_thermal_displace_type
 _atom_site_B_iso_or_equiv
 _atom_site_type_symbol
Nb1 1.0000000000 0.0000000000 0.0000000000 0.0000000000  Biso 1.0 Nb
S2 1.0000000000 0.0000000000 0.0000000000 0.3394589868  Biso 1.0 S
S3 1.0000000000 0.6605410132 0.6605410132 0.6605410132  Biso 1.0 S
S4 1.0000000000 0.0000000000 0.3394589868 0.0000000000  Biso 1.0 S
S5 1.0000000000 0.3394589868 0.0000000000 0.0000000000  Biso 1.0 S
Tl6 1.0000000000 0.5000000000 0.0000000000 0.5000000000  Biso 1.0 Tl
Tl7 1.0000000000 0.0000000000 0.5000000000 0.5000000000  Biso 1.0 Tl
Tl8 1.0000000000 0.5000000000 0.5000000000 0.0000000000  Biso 1.0 Tl
