# AFLOW.org Repositories
# O1Zn1 #216 - (O1Zn1_ICSD_162753) - O1Zn1
data_O1Zn1
_pd_phase_name O1Zn1
_cell_length_a  3.1811659814
_cell_length_b  3.1811659814
_cell_length_c  3.1811659814
_cell_angle_alpha  60.0000000000
_cell_angle_beta  60.0000000000
_cell_angle_gamma  60.0000000000
_symmetry_space_group_name_H-M  'P1'
_symmetry_Int_Tables_Number  1
loop_
_symmetry_equiv_pos_site_id
_symmetry_equiv_pos_as_xyz
  1  x,y,z
loop_
 _atom_site_label
 _atom_site_occupancy
 _atom_site_fract_x
 _atom_site_fract_y
 _atom_site_fract_z
 _atom_site_thermal_displace_type
 _atom_site_B_iso_or_equiv
 _atom_site_type_symbol
O1 1.0000000000 0.7500000000 0.7500000000 0.7500000000  Biso 1.0 O
Zn2 1.0000000000 0.0000000000 0.0000000000 0.0000000000  Biso 1.0 Zn
