# AFLOW.org Repositories
# O3Se1Sr1 #62 - (O3Se1Sr1_ICSD_419386) - 
data_O3Se1Sr1
_pd_phase_name O3Se1Sr1
_cell_length_a  4.4902820253
_cell_length_b  5.5972315105
_cell_length_c  12.8159857517
_cell_angle_alpha  90.0000000000
_cell_angle_beta  90.0000000000
_cell_angle_gamma  90.0000000000
_symmetry_space_group_name_H-M  'P1'
_symmetry_Int_Tables_Number  1
loop_
_symmetry_equiv_pos_site_id
_symmetry_equiv_pos_as_xyz
  1  x,y,z
loop_
 _atom_site_label
 _atom_site_occupancy
 _atom_site_fract_x
 _atom_site_fract_y
 _atom_site_fract_z
 _atom_site_thermal_displace_type
 _atom_site_B_iso_or_equiv
 _atom_site_type_symbol
O1 1.0000000000 0.1142193884 0.7500000000 0.0499603552  Biso 1.0 O
O2 1.0000000000 0.6142193884 0.2500000000 0.4500396448  Biso 1.0 O
O3 1.0000000000 0.8857806116 0.2500000000 0.9500396448  Biso 1.0 O
O4 1.0000000000 0.3857806116 0.7500000000 0.5499603552  Biso 1.0 O
O5 1.0000000000 0.5162964048 0.9887142719 0.1647497592  Biso 1.0 O
O6 1.0000000000 0.0162964048 0.0112857281 0.3352502408  Biso 1.0 O
O7 1.0000000000 0.4837035952 0.4887142719 0.8352502408  Biso 1.0 O
O8 1.0000000000 0.9837035952 0.5112857281 0.6647497592  Biso 1.0 O
O9 1.0000000000 0.4837035952 0.0112857281 0.8352502408  Biso 1.0 O
O10 1.0000000000 0.9837035952 0.9887142719 0.6647497592  Biso 1.0 O
O11 1.0000000000 0.5162964048 0.5112857281 0.1647497592  Biso 1.0 O
O12 1.0000000000 0.0162964048 0.4887142719 0.3352502408  Biso 1.0 O
Se13 1.0000000000 0.4888169725 0.7500000000 0.0788260124  Biso 1.0 Se
Se14 1.0000000000 0.9888169725 0.2500000000 0.4211739876  Biso 1.0 Se
Se15 1.0000000000 0.5111830275 0.2500000000 0.9211739876  Biso 1.0 Se
Se16 1.0000000000 0.0111830275 0.7500000000 0.5788260124  Biso 1.0 Se
Sr17 1.0000000000 0.5125474957 0.7500000000 0.3475720062  Biso 1.0 Sr
Sr18 1.0000000000 0.0125474957 0.2500000000 0.1524279938  Biso 1.0 Sr
Sr19 1.0000000000 0.4874525043 0.2500000000 0.6524279938  Biso 1.0 Sr
Sr20 1.0000000000 0.9874525043 0.7500000000 0.8475720062  Biso 1.0 Sr
