# AFLOW.org Repositories
# O6Os2Rb1 #216 - (O6Os2Rb1_ICSD_161127) -
data_O6Os2Rb1
_pd_phase_name O6Os2Rb1
_cell_length_a  7.2672485505
_cell_length_b  7.2672485505
_cell_length_c  7.2672485505
_cell_angle_alpha  60.0000000000
_cell_angle_beta  60.0000000000
_cell_angle_gamma  60.0000000000
_symmetry_space_group_name_H-M  'P1'
_symmetry_Int_Tables_Number  1
loop_
_symmetry_equiv_pos_site_id
_symmetry_equiv_pos_as_xyz
  1  x,y,z
loop_
 _atom_site_label
 _atom_site_occupancy
 _atom_site_fract_x
 _atom_site_fract_y
 _atom_site_fract_z
 _atom_site_thermal_displace_type
 _atom_site_B_iso_or_equiv
 _atom_site_type_symbol
O1 1.0000000000 0.1925880977 0.8074119023 0.1925880977  Biso 1.0 O
O2 1.0000000000 0.8074119023 0.1925880977 0.8074119023  Biso 1.0 O
O3 1.0000000000 0.8074119023 0.1925880977 0.1925880977  Biso 1.0 O
O4 1.0000000000 0.1925880977 0.8074119023 0.8074119023  Biso 1.0 O
O5 1.0000000000 0.8074119023 0.8074119023 0.1925880977  Biso 1.0 O
O6 1.0000000000 0.1925880977 0.1925880977 0.8074119023  Biso 1.0 O
O7 1.0000000000 0.0574639662 0.4425360338 0.0574639662  Biso 1.0 O
O8 1.0000000000 0.4425360338 0.0574639662 0.4425360338  Biso 1.0 O
O9 1.0000000000 0.4425360338 0.0574639662 0.0574639662  Biso 1.0 O
O10 1.0000000000 0.0574639662 0.4425360338 0.4425360338  Biso 1.0 O
O11 1.0000000000 0.4425360338 0.4425360338 0.0574639662  Biso 1.0 O
O12 1.0000000000 0.0574639662 0.0574639662 0.4425360338  Biso 1.0 O
Os13 1.0000000000 0.1249978623 0.1249978623 0.6250064131  Biso 1.0 Os
Os14 1.0000000000 0.1249978623 0.1249978623 0.1249978623  Biso 1.0 Os
Os15 1.0000000000 0.1249978623 0.6250064131 0.1249978623  Biso 1.0 Os
Os16 1.0000000000 0.6250064131 0.1249978623 0.1249978623  Biso 1.0 Os
Rb17 1.0000000000 0.7500000000 0.7500000000 0.7500000000  Biso 1.0 Rb
Rb18 1.0000000000 0.5000000000 0.5000000000 0.5000000000  Biso 1.0 Rb
