# AFLOW.org Repositories
# Os3Th7 #186 - (Os3Th7_ICSD_150669) - Os3
data_Os3Th7
_pd_phase_name Os3Th7
_cell_length_a  10.3527582964
_cell_length_b  10.3527582964
_cell_length_c  6.5200522716
_cell_angle_alpha  90.0000000000
_cell_angle_beta  90.0000000000
_cell_angle_gamma  120.0000000000
_symmetry_space_group_name_H-M  'P1'
_symmetry_Int_Tables_Number  1
loop_
_symmetry_equiv_pos_site_id
_symmetry_equiv_pos_as_xyz
  1  x,y,z
loop_
 _atom_site_label
 _atom_site_occupancy
 _atom_site_fract_x
 _atom_site_fract_y
 _atom_site_fract_z
 _atom_site_thermal_displace_type
 _atom_site_B_iso_or_equiv
 _atom_site_type_symbol
Os1 1.0000000000 0.8126509090 0.1873490910 0.0519202292  Biso 1.0 Os
Os2 1.0000000000 0.8126455929 0.6252923967 0.0519320531  Biso 1.0 Os
Os3 1.0000000000 0.3747076033 0.1873544071 0.0519320531  Biso 1.0 Os
Os4 1.0000000000 0.1873490910 0.8126509090 0.5519202292  Biso 1.0 Os
Os5 1.0000000000 0.1873544071 0.3747076033 0.5519320531  Biso 1.0 Os
Os6 1.0000000000 0.6252923967 0.8126455929 0.5519320531  Biso 1.0 Os
Th7 1.0000000000 0.3333303284 0.6666696716 0.7857225428  Biso 1.0 Th
Th8 1.0000000000 0.6666696716 0.3333303284 0.2857225428  Biso 1.0 Th
Th9 1.0000000000 0.1266836787 0.8733163213 0.9981873268  Biso 1.0 Th
Th10 1.0000000000 0.1266859216 0.2533710659 0.9981876140  Biso 1.0 Th
Th11 1.0000000000 0.7466289341 0.8733140784 0.9981876140  Biso 1.0 Th
Th12 1.0000000000 0.8733163213 0.1266836787 0.4981873268  Biso 1.0 Th
Th13 1.0000000000 0.8733140784 0.7466289341 0.4981876140  Biso 1.0 Th
Th14 1.0000000000 0.2533710659 0.1266859216 0.4981876140  Biso 1.0 Th
Th15 1.0000000000 0.5401326857 0.4598673143 0.8019807406  Biso 1.0 Th
Th16 1.0000000000 0.5401365213 0.0802689460 0.8019749132  Biso 1.0 Th
Th17 1.0000000000 0.9197310540 0.4598634787 0.8019749132  Biso 1.0 Th
Th18 1.0000000000 0.4598673143 0.5401326857 0.3019807406  Biso 1.0 Th
Th19 1.0000000000 0.4598634787 0.9197310540 0.3019749132  Biso 1.0 Th
Th20 1.0000000000 0.0802689460 0.5401365213 0.3019749132  Biso 1.0 Th
