# AFLOW.org Repositories
# Pb1S1 #62 - (Pb1S1_ICSD_648438) - Pb1S1 
data_Pb1S1
_pd_phase_name Pb1S1
_cell_length_a  4.2489892603
_cell_length_b  4.2489892603
_cell_length_c  12.0196881001
_cell_angle_alpha  90.0000000000
_cell_angle_beta  90.0000000000
_cell_angle_gamma  90.0000000000
_symmetry_space_group_name_H-M  'P1'
_symmetry_Int_Tables_Number  1
loop_
_symmetry_equiv_pos_site_id
_symmetry_equiv_pos_as_xyz
  1  x,y,z
loop_
 _atom_site_label
 _atom_site_occupancy
 _atom_site_fract_x
 _atom_site_fract_y
 _atom_site_fract_z
 _atom_site_thermal_displace_type
 _atom_site_B_iso_or_equiv
 _atom_site_type_symbol
Pb1 1.0000000000 0.7500000000 0.7511281013 0.1250626331  Biso 1.0 Pb
Pb2 1.0000000000 0.2500000000 0.2511281013 0.3749373669  Biso 1.0 Pb
Pb3 1.0000000000 0.2500000000 0.2488718987 0.8749373669  Biso 1.0 Pb
Pb4 1.0000000000 0.7500000000 0.7488718987 0.6250626331  Biso 1.0 Pb
S5 1.0000000000 0.7500000000 0.7510809772 0.3749829315  Biso 1.0 S
S6 1.0000000000 0.2500000000 0.2510809772 0.1250170685  Biso 1.0 S
S7 1.0000000000 0.2500000000 0.2489190228 0.6250170685  Biso 1.0 S
S8 1.0000000000 0.7500000000 0.7489190228 0.8749829315  Biso 1.0 S
