# AFLOW.org Repositories
# Pt8V1 #139 - (Pt8V1_ICSD_180978) - Pt8V1
data_Pt8V1
_pd_phase_name Pt8V1
_cell_length_a  6.2382232487
_cell_length_b  6.2382232487
_cell_length_c  6.2382232487
_cell_angle_alpha  95.6589793101
_cell_angle_beta  95.6589793101
_cell_angle_gamma  143.3969142659
_symmetry_space_group_name_H-M  'P1'
_symmetry_Int_Tables_Number  1
loop_
_symmetry_equiv_pos_site_id
_symmetry_equiv_pos_as_xyz
  1  x,y,z
loop_
 _atom_site_label
 _atom_site_occupancy
 _atom_site_fract_x
 _atom_site_fract_y
 _atom_site_fract_z
 _atom_site_thermal_displace_type
 _atom_site_B_iso_or_equiv
 _atom_site_type_symbol
Pt1 1.0000000000 0.6628193077 0.3371806923 0.0000000000  Biso 1.0 Pt
Pt2 1.0000000000 0.3371806923 0.6628193077 0.0000000000  Biso 1.0 Pt
Pt3 1.0000000000 0.6628193077 0.6628193077 0.3256386155  Biso 1.0 Pt
Pt4 1.0000000000 0.3371806923 0.3371806923 0.6743613845  Biso 1.0 Pt
Pt5 1.0000000000 0.0000000000 0.3294521096 0.3294521096  Biso 1.0 Pt
Pt6 1.0000000000 0.0000000000 0.6705478904 0.6705478904  Biso 1.0 Pt
Pt7 1.0000000000 0.6705478904 0.0000000000 0.6705478904  Biso 1.0 Pt
Pt8 1.0000000000 0.3294521096 0.0000000000 0.3294521096  Biso 1.0 Pt
V9 1.0000000000 0.0000000000 0.0000000000 0.0000000000  Biso 1.0 V
