# AFLOW.org Repositories
# Re2Sc1 #194 - (Re2Sc1_ICSD_650085) - Re2
data_Re2Sc1
_pd_phase_name Re2Sc1
_cell_length_a  5.3304661165
_cell_length_b  5.3304661165
_cell_length_c  8.6533370607
_cell_angle_alpha  90.0000000000
_cell_angle_beta  90.0000000000
_cell_angle_gamma  120.0000000000
_symmetry_space_group_name_H-M  'P1'
_symmetry_Int_Tables_Number  1
loop_
_symmetry_equiv_pos_site_id
_symmetry_equiv_pos_as_xyz
  1  x,y,z
loop_
 _atom_site_label
 _atom_site_occupancy
 _atom_site_fract_x
 _atom_site_fract_y
 _atom_site_fract_z
 _atom_site_thermal_displace_type
 _atom_site_B_iso_or_equiv
 _atom_site_type_symbol
Re1 1.0000000000 0.0000000000 0.0000000000 0.0000000000  Biso 1.0 Re
Re2 1.0000000000 0.0000000000 0.0000000000 0.5000000000  Biso 1.0 Re
Re3 1.0000000000 0.8284320893 0.6568822173 0.2500000000  Biso 1.0 Re
Re4 1.0000000000 0.3431177827 0.1715679107 0.2500000000  Biso 1.0 Re
Re5 1.0000000000 0.8284395047 0.1715604953 0.2500000000  Biso 1.0 Re
Re6 1.0000000000 0.1715679107 0.3431177827 0.7500000000  Biso 1.0 Re
Re7 1.0000000000 0.6568822173 0.8284320893 0.7500000000  Biso 1.0 Re
Re8 1.0000000000 0.1715604953 0.8284395047 0.7500000000  Biso 1.0 Re
Sc9 1.0000000000 0.3333220523 0.6666779477 0.0621630002  Biso 1.0 Sc
Sc10 1.0000000000 0.6666779477 0.3333220523 0.5621630002  Biso 1.0 Sc
Sc11 1.0000000000 0.6666779477 0.3333220523 0.9378369998  Biso 1.0 Sc
Sc12 1.0000000000 0.3333220523 0.6666779477 0.4378369998  Biso 1.0 Sc
