# AFLOW.org Repositories
# Tb1Te2 #129.2 - (Tb1Te2_ICSD_652955) - T
data_Tb1Te2
_pd_phase_name Tb1Te2
_cell_length_a  4.4545298265
_cell_length_b  4.4545298265
_cell_length_c  8.9176132000
_cell_angle_alpha  90.0000000000
_cell_angle_beta  90.0000000000
_cell_angle_gamma  90.0000000000
_symmetry_space_group_name_H-M  'P1'
_symmetry_Int_Tables_Number  1
loop_
_symmetry_equiv_pos_site_id
_symmetry_equiv_pos_as_xyz
  1  x,y,z
loop_
 _atom_site_label
 _atom_site_occupancy
 _atom_site_fract_x
 _atom_site_fract_y
 _atom_site_fract_z
 _atom_site_thermal_displace_type
 _atom_site_B_iso_or_equiv
 _atom_site_type_symbol
Tb1 1.0000000000 0.2500000000 0.2500000000 0.2707654815  Biso 1.0 Tb
Tb2 1.0000000000 0.7500000000 0.7500000000 0.7292345185  Biso 1.0 Tb
Te3 1.0000000000 0.7500000000 0.2500000000 0.0000000000  Biso 1.0 Te
Te4 1.0000000000 0.2500000000 0.7500000000 0.0000000000  Biso 1.0 Te
Te5 1.0000000000 0.2500000000 0.2500000000 0.6285772865  Biso 1.0 Te
Te6 1.0000000000 0.7500000000 0.7500000000 0.3714227135  Biso 1.0 Te
