# AFLOW.org Repositories
# Al1Ba1Si1 #187 - (Al1Ba1Si1_ICSD_162866)
data_Al1Ba1Si1
_pd_phase_name Al1Ba1Si1
_cell_length_a  4.3191594379
_cell_length_b  4.3191594379
_cell_length_c  5.1850800030
_cell_angle_alpha  90.0000000000
_cell_angle_beta  90.0000000000
_cell_angle_gamma  120.0000000000
_symmetry_space_group_name_H-M  'P1'
_symmetry_Int_Tables_Number  1
loop_
_symmetry_equiv_pos_site_id
_symmetry_equiv_pos_as_xyz
  1  x,y,z
loop_
 _atom_site_label
 _atom_site_occupancy
 _atom_site_fract_x
 _atom_site_fract_y
 _atom_site_fract_z
 _atom_site_thermal_displace_type
 _atom_site_B_iso_or_equiv
 _atom_site_type_symbol
Al1 1.0000000000 0.6666514820 0.3333485180 0.5000000000  Biso 1.0 Al
Ba2 1.0000000000 0.0000000000 0.0000000000 0.0000000000  Biso 1.0 Ba
Si3 1.0000000000 0.3333476468 0.6666523532 0.5000000000  Biso 1.0 Si
