# AFLOW.org Repositories
# Al1Er1Pd1 #189 - (Al1Er1Pd1_ICSD_603267)
data_Al1Er1Pd1
_pd_phase_name Al1Er1Pd1
_cell_length_a  7.2172381229
_cell_length_b  7.2172381229
_cell_length_c  3.9044919652
_cell_angle_alpha  90.0000000000
_cell_angle_beta  90.0000000000
_cell_angle_gamma  120.0000000000
_symmetry_space_group_name_H-M  'P1'
_symmetry_Int_Tables_Number  1
loop_
_symmetry_equiv_pos_site_id
_symmetry_equiv_pos_as_xyz
  1  x,y,z
loop_
 _atom_site_label
 _atom_site_occupancy
 _atom_site_fract_x
 _atom_site_fract_y
 _atom_site_fract_z
 _atom_site_thermal_displace_type
 _atom_site_B_iso_or_equiv
 _atom_site_type_symbol
Al1 1.0000000000 0.0000000000 0.7584282812 0.0000000000  Biso 1.0 Al
Al2 1.0000000000 0.2415717188 0.2415717188 0.0000000000  Biso 1.0 Al
Al3 1.0000000000 0.7584271708 0.0000000000 0.0000000000  Biso 1.0 Al
Er4 1.0000000000 0.0000000000 0.4150353778 0.5000000000  Biso 1.0 Er
Er5 1.0000000000 0.5849646222 0.5849646222 0.5000000000  Biso 1.0 Er
Er6 1.0000000000 0.4150374171 0.0000000000 0.5000000000  Biso 1.0 Er
Pd7 1.0000000000 0.6666666527 0.3333332873 0.0000000000  Biso 1.0 Pd
Pd8 1.0000000000 0.3333333653 0.6666667127 0.0000000000  Biso 1.0 Pd
Pd9 1.0000000000 0.0000000000 0.0000000000 0.5000000000  Biso 1.0 Pd
