# AFLOW.org Repositories
# Au1Ge1Tb1 #186 - (Au1Ge1Tb1_ICSD_656873)
data_Au1Ge1Tb1
_pd_phase_name Au1Ge1Tb1
_cell_length_a  4.4811331877
_cell_length_b  4.4811331877
_cell_length_c  7.3682872068
_cell_angle_alpha  90.0000000000
_cell_angle_beta  90.0000000000
_cell_angle_gamma  120.0000000000
_symmetry_space_group_name_H-M  'P1'
_symmetry_Int_Tables_Number  1
loop_
_symmetry_equiv_pos_site_id
_symmetry_equiv_pos_as_xyz
  1  x,y,z
loop_
 _atom_site_label
 _atom_site_occupancy
 _atom_site_fract_x
 _atom_site_fract_y
 _atom_site_fract_z
 _atom_site_thermal_displace_type
 _atom_site_B_iso_or_equiv
 _atom_site_type_symbol
Au1 1.0000000000 0.3333353910 0.6666646090 0.0341240649  Biso 1.0 Au
Au2 1.0000000000 0.6666646090 0.3333353910 0.5341240649  Biso 1.0 Au
Ge3 1.0000000000 0.3333328664 0.6666671336 0.4571280802  Biso 1.0 Ge
Ge4 1.0000000000 0.6666671336 0.3333328664 0.9571280802  Biso 1.0 Ge
Tb5 1.0000000000 0.0000000000 0.0000000000 0.2487478548  Biso 1.0 Tb
Tb6 1.0000000000 0.0000000000 0.0000000000 0.7487478548  Biso 1.0 Tb
