# AFLOW.org Repositories
# Au1La1Pb1 #194 - (Au1La1Pb1_ICSD_612104)
data_Au1La1Pb1
_pd_phase_name Au1La1Pb1
_cell_length_a  4.9039823312
_cell_length_b  4.9039823312
_cell_length_c  8.1005358727
_cell_angle_alpha  90.0000000000
_cell_angle_beta  90.0000000000
_cell_angle_gamma  120.0000000000
_symmetry_space_group_name_H-M  'P1'
_symmetry_Int_Tables_Number  1
loop_
_symmetry_equiv_pos_site_id
_symmetry_equiv_pos_as_xyz
  1  x,y,z
loop_
 _atom_site_label
 _atom_site_occupancy
 _atom_site_fract_x
 _atom_site_fract_y
 _atom_site_fract_z
 _atom_site_thermal_displace_type
 _atom_site_B_iso_or_equiv
 _atom_site_type_symbol
Au1 1.0000000000 0.3333258515 0.6666741485 0.2500000000  Biso 1.0 Au
Au2 1.0000000000 0.6666741485 0.3333258515 0.7500000000  Biso 1.0 Au
La3 1.0000000000 0.0000000000 0.0000000000 0.0000000000  Biso 1.0 La
La4 1.0000000000 0.0000000000 0.0000000000 0.5000000000  Biso 1.0 La
Pb5 1.0000000000 0.3333509958 0.6666490042 0.7500000000  Biso 1.0 Pb
Pb6 1.0000000000 0.6666490042 0.3333509958 0.2500000000  Biso 1.0 Pb
