# AFLOW.org Repositories
# B2Ta1 #191 - (B2Ta1_ICSD_108085) - B2Ta1
data_B2Ta1
_pd_phase_name B2Ta1
_cell_length_a  3.1061847634
_cell_length_b  3.1061847634
_cell_length_c  3.3706106639
_cell_angle_alpha  90.0000000000
_cell_angle_beta  90.0000000000
_cell_angle_gamma  120.0000000000
_symmetry_space_group_name_H-M  'P1'
_symmetry_Int_Tables_Number  1
loop_
_symmetry_equiv_pos_site_id
_symmetry_equiv_pos_as_xyz
  1  x,y,z
loop_
 _atom_site_label
 _atom_site_occupancy
 _atom_site_fract_x
 _atom_site_fract_y
 _atom_site_fract_z
 _atom_site_thermal_displace_type
 _atom_site_B_iso_or_equiv
 _atom_site_type_symbol
B1 1.0000000000 0.6666612030 0.3333224061 0.5000000000  Biso 1.0 B
B2 1.0000000000 0.3333387970 0.6666775939 0.5000000000  Biso 1.0 B
Ta3 1.0000000000 0.0000000000 0.0000000000 0.0000000000  Biso 1.0 Ta
