# AFLOW.org Repositories
# B6Os1Y2 #55 - (B6Os1Y2_ICSD_603494) - B6
data_B6Os1Y2
_pd_phase_name B6Os1Y2
_cell_length_a  3.6625173643
_cell_length_b  9.1736627783
_cell_length_c  11.5487158497
_cell_angle_alpha  90.0000000000
_cell_angle_beta  90.0000000000
_cell_angle_gamma  90.0000000000
_symmetry_space_group_name_H-M  'P1'
_symmetry_Int_Tables_Number  1
loop_
_symmetry_equiv_pos_site_id
_symmetry_equiv_pos_as_xyz
  1  x,y,z
loop_
 _atom_site_label
 _atom_site_occupancy
 _atom_site_fract_x
 _atom_site_fract_y
 _atom_site_fract_z
 _atom_site_thermal_displace_type
 _atom_site_B_iso_or_equiv
 _atom_site_type_symbol
B1 1.0000000000 0.5000000000 0.0534556569 0.9327830826  Biso 1.0 B
B2 1.0000000000 0.5000000000 0.9465443431 0.0672169174  Biso 1.0 B
B3 1.0000000000 0.5000000000 0.4465443431 0.4327830826  Biso 1.0 B
B4 1.0000000000 0.5000000000 0.5534556569 0.5672169174  Biso 1.0 B
B5 1.0000000000 0.5000000000 0.2471843655 0.9200006408  Biso 1.0 B
B6 1.0000000000 0.5000000000 0.7528156345 0.0799993592  Biso 1.0 B
B7 1.0000000000 0.5000000000 0.2528156345 0.4200006408  Biso 1.0 B
B8 1.0000000000 0.5000000000 0.7471843655 0.5799993592  Biso 1.0 B
B9 1.0000000000 0.5000000000 0.2904300163 0.7669866634  Biso 1.0 B
B10 1.0000000000 0.5000000000 0.7095699837 0.2330133366  Biso 1.0 B
B11 1.0000000000 0.5000000000 0.2095699837 0.2669866634  Biso 1.0 B
B12 1.0000000000 0.5000000000 0.7904300163 0.7330133366  Biso 1.0 B
B13 1.0000000000 0.5000000000 0.1319005169 0.6858861702  Biso 1.0 B
B14 1.0000000000 0.5000000000 0.8680994831 0.3141138298  Biso 1.0 B
B15 1.0000000000 0.5000000000 0.3680994831 0.1858861702  Biso 1.0 B
B16 1.0000000000 0.5000000000 0.6319005169 0.8141138298  Biso 1.0 B
B17 1.0000000000 0.5000000000 0.4832556656 0.7130858910  Biso 1.0 B
B18 1.0000000000 0.5000000000 0.5167443344 0.2869141090  Biso 1.0 B
B19 1.0000000000 0.5000000000 0.0167443344 0.2130858910  Biso 1.0 B
B20 1.0000000000 0.5000000000 0.9832556656 0.7869141090  Biso 1.0 B
B21 1.0000000000 0.5000000000 0.1109656573 0.5308194444  Biso 1.0 B
B22 1.0000000000 0.5000000000 0.8890343427 0.4691805556  Biso 1.0 B
B23 1.0000000000 0.5000000000 0.3890343427 0.0308194444  Biso 1.0 B
B24 1.0000000000 0.5000000000 0.6109656573 0.9691805556  Biso 1.0 B
Os25 1.0000000000 0.0000000000 0.1372964710 0.8216606285  Biso 1.0 Os
Os26 1.0000000000 0.0000000000 0.8627035290 0.1783393715  Biso 1.0 Os
Os27 1.0000000000 0.0000000000 0.3627035290 0.3216606285  Biso 1.0 Os
Os28 1.0000000000 0.0000000000 0.6372964710 0.6783393715  Biso 1.0 Os
Y29 1.0000000000 0.0000000000 0.8218922798 0.9135313270  Biso 1.0 Y
Y30 1.0000000000 0.0000000000 0.1781077202 0.0864686730  Biso 1.0 Y
Y31 1.0000000000 0.0000000000 0.6781077202 0.4135313270  Biso 1.0 Y
Y32 1.0000000000 0.0000000000 0.3218922798 0.5864686730  Biso 1.0 Y
Y33 1.0000000000 0.0000000000 0.4440507187 0.8735352384  Biso 1.0 Y
Y34 1.0000000000 0.0000000000 0.5559492813 0.1264647616  Biso 1.0 Y
Y35 1.0000000000 0.0000000000 0.0559492813 0.3735352384  Biso 1.0 Y
Y36 1.0000000000 0.0000000000 0.9440507187 0.6264647616  Biso 1.0 Y
