# AFLOW.org Repositories
# Ba1Cd2Ge2 #139 - (Ba1Cd2Ge2_ICSD_174263)
data_Ba1Cd2Ge2
_pd_phase_name Ba1Cd2Ge2
_cell_length_a  6.7115841094
_cell_length_b  6.7115841094
_cell_length_c  6.7115841094
_cell_angle_alpha  138.7475076837
_cell_angle_beta  138.7475076837
_cell_angle_gamma  59.7600630065
_symmetry_space_group_name_H-M  'P1'
_symmetry_Int_Tables_Number  1
loop_
_symmetry_equiv_pos_site_id
_symmetry_equiv_pos_as_xyz
  1  x,y,z
loop_
 _atom_site_label
 _atom_site_occupancy
 _atom_site_fract_x
 _atom_site_fract_y
 _atom_site_fract_z
 _atom_site_thermal_displace_type
 _atom_site_B_iso_or_equiv
 _atom_site_type_symbol
Ba1 1.0000000000 0.0000000000 0.0000000000 0.0000000000  Biso 1.0 Ba
Cd2 1.0000000000 0.7500000000 0.2500000000 0.5000000000  Biso 1.0 Cd
Cd3 1.0000000000 0.2500000000 0.7500000000 0.5000000000  Biso 1.0 Cd
Ge4 1.0000000000 0.6117603532 0.6117603532 0.0000000000  Biso 1.0 Ge
Ge5 1.0000000000 0.3882396468 0.3882396468 0.0000000000  Biso 1.0 Ge
