# AFLOW.org Repositories
# Ba1Ge3Ir1 #107 - (Ba1Ge3Ir1_ICSD_174264)
data_Ba1Ge3Ir1
_pd_phase_name Ba1Ge3Ir1
_cell_length_a  6.0813080415
_cell_length_b  6.0813080415
_cell_length_c  6.0813080415
_cell_angle_alpha  135.7458276819
_cell_angle_beta  135.7458276819
_cell_angle_gamma  64.3735352860
_symmetry_space_group_name_H-M  'P1'
_symmetry_Int_Tables_Number  1
loop_
_symmetry_equiv_pos_site_id
_symmetry_equiv_pos_as_xyz
  1  x,y,z
loop_
 _atom_site_label
 _atom_site_occupancy
 _atom_site_fract_x
 _atom_site_fract_y
 _atom_site_fract_z
 _atom_site_thermal_displace_type
 _atom_site_B_iso_or_equiv
 _atom_site_type_symbol
Ba1 1.0000000000 0.5899901970 0.5899901970 0.0000000000  Biso 1.0 Ba
Ge2 1.0000000000 0.0000000000 0.0000000000 0.0000000000  Biso 1.0 Ge
Ge3 1.0000000000 0.8417672526 0.3417672526 0.5000000000  Biso 1.0 Ge
Ge4 1.0000000000 0.3417672526 0.8417672526 0.5000000000  Biso 1.0 Ge
Ir5 1.0000000000 0.2409676302 0.2409676302 0.0000000000  Biso 1.0 Ir
