# AFLOW.org Repositories
# Ba1O1 #194 - (Ba1O1_ICSD_173921) - Ba1O1
data_Ba1O1
_pd_phase_name Ba1O1
_cell_length_a  3.8472035229
_cell_length_b  3.8472035229
_cell_length_c  6.6866551190
_cell_angle_alpha  90.0000000000
_cell_angle_beta  90.0000000000
_cell_angle_gamma  120.0000000000
_symmetry_space_group_name_H-M  'P1'
_symmetry_Int_Tables_Number  1
loop_
_symmetry_equiv_pos_site_id
_symmetry_equiv_pos_as_xyz
  1  x,y,z
loop_
 _atom_site_label
 _atom_site_occupancy
 _atom_site_fract_x
 _atom_site_fract_y
 _atom_site_fract_z
 _atom_site_thermal_displace_type
 _atom_site_B_iso_or_equiv
 _atom_site_type_symbol
Ba1 1.0000000000 0.3333174775 0.6666825225 0.2500000000  Biso 1.0 Ba
Ba2 1.0000000000 0.6666825225 0.3333174775 0.7500000000  Biso 1.0 Ba
O3 1.0000000000 0.0000000000 0.0000000000 0.0000000000  Biso 1.0 O
O4 1.0000000000 0.0000000000 0.0000000000 0.5000000000  Biso 1.0 O
