# AFLOW.org Repositories
# Ba2Ge1 #62 - (Ba2Ge1_ICSD_25351) - Ba2Ge
data_Ba2Ge1
_pd_phase_name Ba2Ge1
_cell_length_a  5.4710680814
_cell_length_b  8.5318339644
_cell_length_c  10.2284884603
_cell_angle_alpha  90.0000000000
_cell_angle_beta  90.0000000000
_cell_angle_gamma  90.0000000000
_symmetry_space_group_name_H-M  'P1'
_symmetry_Int_Tables_Number  1
loop_
_symmetry_equiv_pos_site_id
_symmetry_equiv_pos_as_xyz
  1  x,y,z
loop_
 _atom_site_label
 _atom_site_occupancy
 _atom_site_fract_x
 _atom_site_fract_y
 _atom_site_fract_z
 _atom_site_thermal_displace_type
 _atom_site_B_iso_or_equiv
 _atom_site_type_symbol
Ba1 1.0000000000 0.2500000000 0.5181022834 0.3289816520  Biso 1.0 Ba
Ba2 1.0000000000 0.7500000000 0.9818977166 0.8289816520  Biso 1.0 Ba
Ba3 1.0000000000 0.7500000000 0.4818977166 0.6710183480  Biso 1.0 Ba
Ba4 1.0000000000 0.2500000000 0.0181022834 0.1710183480  Biso 1.0 Ba
Ba5 1.0000000000 0.2500000000 0.6466260179 0.9157491698  Biso 1.0 Ba
Ba6 1.0000000000 0.7500000000 0.8533739821 0.4157491698  Biso 1.0 Ba
Ba7 1.0000000000 0.7500000000 0.3533739821 0.0842508302  Biso 1.0 Ba
Ba8 1.0000000000 0.2500000000 0.1466260179 0.5842508302  Biso 1.0 Ba
Ge9 1.0000000000 0.2500000000 0.2492098001 0.9010515709  Biso 1.0 Ge
Ge10 1.0000000000 0.7500000000 0.2507901999 0.4010515709  Biso 1.0 Ge
Ge11 1.0000000000 0.7500000000 0.7507901999 0.0989484291  Biso 1.0 Ge
Ge12 1.0000000000 0.2500000000 0.7492098001 0.5989484291  Biso 1.0 Ge
