# AFLOW.org Repositories
# Be1F2 #218 - (Be1F2_ICSD_173557) - Be1F2
data_Be1F2
_pd_phase_name Be1F2
_cell_length_a  7.3318491826
_cell_length_b  7.3318491826
_cell_length_c  7.3318491826
_cell_angle_alpha  109.4712206345
_cell_angle_beta  109.4712206345
_cell_angle_gamma  109.4712206345
_symmetry_space_group_name_H-M  'P1'
_symmetry_Int_Tables_Number  1
loop_
_symmetry_equiv_pos_site_id
_symmetry_equiv_pos_as_xyz
  1  x,y,z
loop_
 _atom_site_label
 _atom_site_occupancy
 _atom_site_fract_x
 _atom_site_fract_y
 _atom_site_fract_z
 _atom_site_thermal_displace_type
 _atom_site_B_iso_or_equiv
 _atom_site_type_symbol
Be1 1.0000000000 0.5000000000 0.2500000000 0.7500000000  Biso 1.0 Be
Be2 1.0000000000 0.5000000000 0.7500000000 0.2500000000  Biso 1.0 Be
Be3 1.0000000000 0.2500000000 0.7500000000 0.5000000000  Biso 1.0 Be
Be4 1.0000000000 0.7500000000 0.2500000000 0.5000000000  Biso 1.0 Be
Be5 1.0000000000 0.7500000000 0.5000000000 0.2500000000  Biso 1.0 Be
Be6 1.0000000000 0.2500000000 0.5000000000 0.7500000000  Biso 1.0 Be
F7 1.0000000000 0.3110215962 0.7114160547 0.3110215962  Biso 1.0 F
F8 1.0000000000 0.5996055414 0.2885839453 0.5996055414  Biso 1.0 F
F9 1.0000000000 0.4003944586 0.0000000000 0.6889784038  Biso 1.0 F
F10 1.0000000000 0.6889784038 0.0000000000 0.4003944586  Biso 1.0 F
F11 1.0000000000 0.7114160547 0.3110215962 0.3110215962  Biso 1.0 F
F12 1.0000000000 0.2885839453 0.5996055414 0.5996055414  Biso 1.0 F
F13 1.0000000000 0.0000000000 0.6889784038 0.4003944586  Biso 1.0 F
F14 1.0000000000 0.0000000000 0.4003944586 0.6889784038  Biso 1.0 F
F15 1.0000000000 0.3110215962 0.3110215962 0.7114160547  Biso 1.0 F
F16 1.0000000000 0.5996055414 0.5996055414 0.2885839453  Biso 1.0 F
F17 1.0000000000 0.6889784038 0.4003944586 0.0000000000  Biso 1.0 F
F18 1.0000000000 0.4003944586 0.6889784038 0.0000000000  Biso 1.0 F
