# AFLOW.org Repositories
# Cs2F6Ge1 #225 - (Cs2F6Ge1_ICSD_35547) - 
data_Cs2F6Ge1
_pd_phase_name Cs2F6Ge1
_cell_length_a  6.4322177865
_cell_length_b  6.4322177865
_cell_length_c  6.4322177865
_cell_angle_alpha  60.0000000000
_cell_angle_beta  60.0000000000
_cell_angle_gamma  60.0000000000
_symmetry_space_group_name_H-M  'P1'
_symmetry_Int_Tables_Number  1
loop_
_symmetry_equiv_pos_site_id
_symmetry_equiv_pos_as_xyz
  1  x,y,z
loop_
 _atom_site_label
 _atom_site_occupancy
 _atom_site_fract_x
 _atom_site_fract_y
 _atom_site_fract_z
 _atom_site_thermal_displace_type
 _atom_site_B_iso_or_equiv
 _atom_site_type_symbol
Cs1 1.0000000000 0.2500000000 0.2500000000 0.2500000000  Biso 1.0 Cs
Cs2 1.0000000000 0.7500000000 0.7500000000 0.7500000000  Biso 1.0 Cs
F3 1.0000000000 0.2025166200 0.7974833800 0.2025166200  Biso 1.0 F
F4 1.0000000000 0.7974833800 0.2025166200 0.7974833800  Biso 1.0 F
F5 1.0000000000 0.2025166200 0.2025166200 0.7974833800  Biso 1.0 F
F6 1.0000000000 0.7974833800 0.7974833800 0.2025166200  Biso 1.0 F
F7 1.0000000000 0.7974833800 0.2025166200 0.2025166200  Biso 1.0 F
F8 1.0000000000 0.2025166200 0.7974833800 0.7974833800  Biso 1.0 F
Ge9 1.0000000000 0.0000000000 0.0000000000 0.0000000000  Biso 1.0 Ge
