# AFLOW.org Repositories
# Ga1Sn3Zr5 #193 - (Ga1Sn3Zr5_ICSD_106753)
data_Ga1Sn3Zr5
_pd_phase_name Ga1Sn3Zr5
_cell_length_a  8.7339220866
_cell_length_b  8.7339220866
_cell_length_c  5.9048936572
_cell_angle_alpha  90.0000000000
_cell_angle_beta  90.0000000000
_cell_angle_gamma  120.0000000000
_symmetry_space_group_name_H-M  'P1'
_symmetry_Int_Tables_Number  1
loop_
_symmetry_equiv_pos_site_id
_symmetry_equiv_pos_as_xyz
  1  x,y,z
loop_
 _atom_site_label
 _atom_site_occupancy
 _atom_site_fract_x
 _atom_site_fract_y
 _atom_site_fract_z
 _atom_site_thermal_displace_type
 _atom_site_B_iso_or_equiv
 _atom_site_type_symbol
Ga1 1.0000000000 0.0000000000 0.0000000000 0.0000000000  Biso 1.0 Ga
Ga2 1.0000000000 0.0000000000 0.0000000000 0.5000000000  Biso 1.0 Ga
Sn3 1.0000000000 0.6122649447 0.0000000000 0.2500000000  Biso 1.0 Sn
Sn4 1.0000000000 0.0000000000 0.6122649447 0.2500000000  Biso 1.0 Sn
Sn5 1.0000000000 0.3877393831 0.3877393831 0.2500000000  Biso 1.0 Sn
Sn6 1.0000000000 0.3877350553 0.0000000000 0.7500000000  Biso 1.0 Sn
Sn7 1.0000000000 0.0000000000 0.3877350553 0.7500000000  Biso 1.0 Sn
Sn8 1.0000000000 0.6122606169 0.6122606169 0.7500000000  Biso 1.0 Sn
Zr9 1.0000000000 0.3333324032 0.6666675968 0.0000000000  Biso 1.0 Zr
Zr10 1.0000000000 0.6666675968 0.3333324032 0.5000000000  Biso 1.0 Zr
Zr11 1.0000000000 0.6666675968 0.3333324032 0.0000000000  Biso 1.0 Zr
Zr12 1.0000000000 0.3333324032 0.6666675968 0.5000000000  Biso 1.0 Zr
Zr13 1.0000000000 0.2666349148 0.0000000000 0.2500000000  Biso 1.0 Zr
Zr14 1.0000000000 0.0000000000 0.2666349148 0.2500000000  Biso 1.0 Zr
Zr15 1.0000000000 0.7333674094 0.7333674094 0.2500000000  Biso 1.0 Zr
Zr16 1.0000000000 0.7333650852 0.0000000000 0.7500000000  Biso 1.0 Zr
Zr17 1.0000000000 0.0000000000 0.7333650852 0.7500000000  Biso 1.0 Zr
Zr18 1.0000000000 0.2666325906 0.2666325906 0.7500000000  Biso 1.0 Zr
