# AFLOW.org Repositories
# Ga3Hf3Nb2 #193 - (Ga3Hf3Nb2_ICSD_103733)
data_Ga3Hf3Nb2
_pd_phase_name Ga3Hf3Nb2
_cell_length_a  7.9400013550
_cell_length_b  7.9400013550
_cell_length_c  5.4763962409
_cell_angle_alpha  90.0000000000
_cell_angle_beta  90.0000000000
_cell_angle_gamma  120.0000000000
_symmetry_space_group_name_H-M  'P1'
_symmetry_Int_Tables_Number  1
loop_
_symmetry_equiv_pos_site_id
_symmetry_equiv_pos_as_xyz
  1  x,y,z
loop_
 _atom_site_label
 _atom_site_occupancy
 _atom_site_fract_x
 _atom_site_fract_y
 _atom_site_fract_z
 _atom_site_thermal_displace_type
 _atom_site_B_iso_or_equiv
 _atom_site_type_symbol
Ga1 1.0000000000 0.6035888047 0.0000000000 0.2500000000  Biso 1.0 Ga
Ga2 1.0000000000 0.0000000000 0.6035888047 0.2500000000  Biso 1.0 Ga
Ga3 1.0000000000 0.3964111940 0.3964111940 0.2500000000  Biso 1.0 Ga
Ga4 1.0000000000 0.3964111953 0.0000000000 0.7500000000  Biso 1.0 Ga
Ga5 1.0000000000 0.0000000000 0.3964111953 0.7500000000  Biso 1.0 Ga
Ga6 1.0000000000 0.6035888060 0.6035888060 0.7500000000  Biso 1.0 Ga
Hf7 1.0000000000 0.2457385518 0.0000000000 0.2500000000  Biso 1.0 Hf
Hf8 1.0000000000 0.0000000000 0.2457385518 0.2500000000  Biso 1.0 Hf
Hf9 1.0000000000 0.7542588437 0.7542588437 0.2500000000  Biso 1.0 Hf
Hf10 1.0000000000 0.7542614482 0.0000000000 0.7500000000  Biso 1.0 Hf
Hf11 1.0000000000 0.0000000000 0.7542614482 0.7500000000  Biso 1.0 Hf
Hf12 1.0000000000 0.2457411563 0.2457411563 0.7500000000  Biso 1.0 Hf
Nb13 1.0000000000 0.3333324470 0.6666675530 0.0000000000  Biso 1.0 Nb
Nb14 1.0000000000 0.6666675530 0.3333324470 0.5000000000  Biso 1.0 Nb
Nb15 1.0000000000 0.6666675530 0.3333324470 0.0000000000  Biso 1.0 Nb
Nb16 1.0000000000 0.3333324470 0.6666675530 0.5000000000  Biso 1.0 Nb
