# AFLOW.org Repositories
# Ge1Hf1Ir1 #62 - (Ge1Hf1Ir1_ICSD_636558) 
data_Ge1Hf1Ir1
_pd_phase_name Ge1Hf1Ir1
_cell_length_a  4.0351958944
_cell_length_b  6.5328954008
_cell_length_c  7.5341931504
_cell_angle_alpha  90.0000000000
_cell_angle_beta  90.0000000000
_cell_angle_gamma  90.0000000000
_symmetry_space_group_name_H-M  'P1'
_symmetry_Int_Tables_Number  1
loop_
_symmetry_equiv_pos_site_id
_symmetry_equiv_pos_as_xyz
  1  x,y,z
loop_
 _atom_site_label
 _atom_site_occupancy
 _atom_site_fract_x
 _atom_site_fract_y
 _atom_site_fract_z
 _atom_site_thermal_displace_type
 _atom_site_B_iso_or_equiv
 _atom_site_type_symbol
Ge1 1.0000000000 0.2500000000 0.2686164235 0.6178911957  Biso 1.0 Ge
Ge2 1.0000000000 0.7500000000 0.2313835765 0.1178911957  Biso 1.0 Ge
Ge3 1.0000000000 0.7500000000 0.7313835765 0.3821088043  Biso 1.0 Ge
Ge4 1.0000000000 0.2500000000 0.7686164235 0.8821088043  Biso 1.0 Ge
Hf5 1.0000000000 0.2500000000 0.0206373364 0.3126126145  Biso 1.0 Hf
Hf6 1.0000000000 0.7500000000 0.4793626636 0.8126126145  Biso 1.0 Hf
Hf7 1.0000000000 0.7500000000 0.9793626636 0.6873873855  Biso 1.0 Hf
Hf8 1.0000000000 0.2500000000 0.5206373364 0.1873873855  Biso 1.0 Hf
Ir9 1.0000000000 0.2500000000 0.1531094048 0.9348747550  Biso 1.0 Ir
Ir10 1.0000000000 0.7500000000 0.3468905952 0.4348747550  Biso 1.0 Ir
Ir11 1.0000000000 0.7500000000 0.8468905952 0.0651252450  Biso 1.0 Ir
Ir12 1.0000000000 0.2500000000 0.6531094048 0.5651252450  Biso 1.0 Ir
