# AFLOW.org Repositories
# Ge1La1 #62 - (Ge1La1_ICSD_108512) - Ge1L
data_Ge1La1
_pd_phase_name Ge1La1
_cell_length_a  4.1695054712
_cell_length_b  6.1593788302
_cell_length_c  8.5511035246
_cell_angle_alpha  90.0000000000
_cell_angle_beta  90.0000000000
_cell_angle_gamma  90.0000000000
_symmetry_space_group_name_H-M  'P1'
_symmetry_Int_Tables_Number  1
loop_
_symmetry_equiv_pos_site_id
_symmetry_equiv_pos_as_xyz
  1  x,y,z
loop_
 _atom_site_label
 _atom_site_occupancy
 _atom_site_fract_x
 _atom_site_fract_y
 _atom_site_fract_z
 _atom_site_thermal_displace_type
 _atom_site_B_iso_or_equiv
 _atom_site_type_symbol
Ge1 1.0000000000 0.7500000000 0.3677621365 0.0371396449  Biso 1.0 Ge
Ge2 1.0000000000 0.2500000000 0.8677621365 0.4628603551  Biso 1.0 Ge
Ge3 1.0000000000 0.2500000000 0.6322378635 0.9628603551  Biso 1.0 Ge
Ge4 1.0000000000 0.7500000000 0.1322378635 0.5371396449  Biso 1.0 Ge
La5 1.0000000000 0.7500000000 0.8816677413 0.1810155224  Biso 1.0 La
La6 1.0000000000 0.2500000000 0.3816677413 0.3189844776  Biso 1.0 La
La7 1.0000000000 0.2500000000 0.1183322587 0.8189844776  Biso 1.0 La
La8 1.0000000000 0.7500000000 0.6183322587 0.6810155224  Biso 1.0 La
