# AFLOW.org Repositories
# Ge1Pd1Sc1 #189 - (Ge1Pd1Sc1_ICSD_637547)
data_Ge1Pd1Sc1
_pd_phase_name Ge1Pd1Sc1
_cell_length_a  6.8328815348
_cell_length_b  6.8328815348
_cell_length_c  3.9670775751
_cell_angle_alpha  90.0000000000
_cell_angle_beta  90.0000000000
_cell_angle_gamma  120.0000000000
_symmetry_space_group_name_H-M  'P1'
_symmetry_Int_Tables_Number  1
loop_
_symmetry_equiv_pos_site_id
_symmetry_equiv_pos_as_xyz
  1  x,y,z
loop_
 _atom_site_label
 _atom_site_occupancy
 _atom_site_fract_x
 _atom_site_fract_y
 _atom_site_fract_z
 _atom_site_thermal_displace_type
 _atom_site_B_iso_or_equiv
 _atom_site_type_symbol
Ge1 1.0000000000 0.6666691219 0.3333400172 0.0000000000  Biso 1.0 Ge
Ge2 1.0000000000 0.3333291047 0.6666599828 0.0000000000  Biso 1.0 Ge
Ge3 1.0000000000 0.0000000000 0.0000000000 0.5000000000  Biso 1.0 Ge
Pd4 1.0000000000 0.0000000000 0.7508880380 0.0000000000  Biso 1.0 Pd
Pd5 1.0000000000 0.2491119620 0.2491119620 0.0000000000  Biso 1.0 Pd
Pd6 1.0000000000 0.7508845385 0.0000000000 0.0000000000  Biso 1.0 Pd
Sc7 1.0000000000 0.0000000000 0.4216278379 0.5000000000  Biso 1.0 Sc
Sc8 1.0000000000 0.5783721621 0.5783721621 0.5000000000  Biso 1.0 Sc
Sc9 1.0000000000 0.4216299373 0.0000000000 0.5000000000  Biso 1.0 Sc
