# AFLOW.org Repositories
# Ho1Rh1Zn1 #62 - (Ho1Rh1Zn1_ICSD_419898) 
data_Ho1Rh1Zn1
_pd_phase_name Ho1Rh1Zn1
_cell_length_a  3.9889911542
_cell_length_b  6.8728394693
_cell_length_c  8.0423424376
_cell_angle_alpha  90.0000000000
_cell_angle_beta  90.0000000000
_cell_angle_gamma  90.0000000000
_symmetry_space_group_name_H-M  'P1'
_symmetry_Int_Tables_Number  1
loop_
_symmetry_equiv_pos_site_id
_symmetry_equiv_pos_as_xyz
  1  x,y,z
loop_
 _atom_site_label
 _atom_site_occupancy
 _atom_site_fract_x
 _atom_site_fract_y
 _atom_site_fract_z
 _atom_site_thermal_displace_type
 _atom_site_B_iso_or_equiv
 _atom_site_type_symbol
Ho1 1.0000000000 0.2500000000 0.0389575407 0.3165941868  Biso 1.0 Ho
Ho2 1.0000000000 0.7500000000 0.4610424593 0.8165941868  Biso 1.0 Ho
Ho3 1.0000000000 0.7500000000 0.9610424593 0.6834058132  Biso 1.0 Ho
Ho4 1.0000000000 0.2500000000 0.5389575407 0.1834058132  Biso 1.0 Ho
Rh5 1.0000000000 0.2500000000 0.2554165730 0.6222462362  Biso 1.0 Rh
Rh6 1.0000000000 0.7500000000 0.2445834270 0.1222462362  Biso 1.0 Rh
Rh7 1.0000000000 0.7500000000 0.7445834270 0.3777537638  Biso 1.0 Rh
Rh8 1.0000000000 0.2500000000 0.7554165730 0.8777537638  Biso 1.0 Rh
Zn9 1.0000000000 0.2500000000 0.6352245255 0.5628536198  Biso 1.0 Zn
Zn10 1.0000000000 0.7500000000 0.8647754745 0.0628536198  Biso 1.0 Zn
Zn11 1.0000000000 0.7500000000 0.3647754745 0.4371463802  Biso 1.0 Zn
Zn12 1.0000000000 0.2500000000 0.1352245255 0.9371463802  Biso 1.0 Zn
