# AFLOW.org Repositories
# In1Sb1 #186 - (In1Sb1_ICSD_640432) - In1
data_In1Sb1
_pd_phase_name In1Sb1
_cell_length_a  4.6629138880
_cell_length_b  4.6629138880
_cell_length_c  7.6751606347
_cell_angle_alpha  90.0000000000
_cell_angle_beta  90.0000000000
_cell_angle_gamma  120.0000000000
_symmetry_space_group_name_H-M  'P1'
_symmetry_Int_Tables_Number  1
loop_
_symmetry_equiv_pos_site_id
_symmetry_equiv_pos_as_xyz
  1  x,y,z
loop_
 _atom_site_label
 _atom_site_occupancy
 _atom_site_fract_x
 _atom_site_fract_y
 _atom_site_fract_z
 _atom_site_thermal_displace_type
 _atom_site_B_iso_or_equiv
 _atom_site_type_symbol
In1 1.0000000000 0.3333148114 0.6666851886 0.9879522677  Biso 1.0 In
In2 1.0000000000 0.6666851886 0.3333148114 0.4879522677  Biso 1.0 In
Sb3 1.0000000000 0.3333480593 0.6666519407 0.3620477323  Biso 1.0 Sb
Sb4 1.0000000000 0.6666519407 0.3333480593 0.8620477323  Biso 1.0 Sb
