# AFLOW.org Repositories
# Mo3Si2 #127 - (Mo3Si2_ICSD_644412) - Mo3
data_Mo3Si2
_pd_phase_name Mo3Si2
_cell_length_a  6.6240475054
_cell_length_b  6.6240475054
_cell_length_c  3.3298486175
_cell_angle_alpha  90.0000000000
_cell_angle_beta  90.0000000000
_cell_angle_gamma  90.0000000000
_symmetry_space_group_name_H-M  'P1'
_symmetry_Int_Tables_Number  1
loop_
_symmetry_equiv_pos_site_id
_symmetry_equiv_pos_as_xyz
  1  x,y,z
loop_
 _atom_site_label
 _atom_site_occupancy
 _atom_site_fract_x
 _atom_site_fract_y
 _atom_site_fract_z
 _atom_site_thermal_displace_type
 _atom_site_B_iso_or_equiv
 _atom_site_type_symbol
Mo1 1.0000000000 0.0000000000 0.0000000000 0.0000000000  Biso 1.0 Mo
Mo2 1.0000000000 0.5000000000 0.5000000000 0.0000000000  Biso 1.0 Mo
Mo3 1.0000000000 0.1626670066 0.6626670066 0.5000000000  Biso 1.0 Mo
Mo4 1.0000000000 0.8373329934 0.3373329934 0.5000000000  Biso 1.0 Mo
Mo5 1.0000000000 0.3373329934 0.1626670066 0.5000000000  Biso 1.0 Mo
Mo6 1.0000000000 0.6626670066 0.8373329934 0.5000000000  Biso 1.0 Mo
Si7 1.0000000000 0.6334666796 0.1334666796 0.0000000000  Biso 1.0 Si
Si8 1.0000000000 0.3665333204 0.8665333204 0.0000000000  Biso 1.0 Si
Si9 1.0000000000 0.8665333204 0.6334666796 0.0000000000  Biso 1.0 Si
Si10 1.0000000000 0.1334666796 0.3665333204 0.0000000000  Biso 1.0 Si
