# AFLOW.org Repositories
# Nb1Re1Si1 #189 - (Nb1Re1Si1_ICSD_645257)
data_Nb1Re1Si1
_pd_phase_name Nb1Re1Si1
_cell_length_a  6.8810488641
_cell_length_b  6.8810488641
_cell_length_c  3.3374074084
_cell_angle_alpha  90.0000000000
_cell_angle_beta  90.0000000000
_cell_angle_gamma  120.0000000000
_symmetry_space_group_name_H-M  'P1'
_symmetry_Int_Tables_Number  1
loop_
_symmetry_equiv_pos_site_id
_symmetry_equiv_pos_as_xyz
  1  x,y,z
loop_
 _atom_site_label
 _atom_site_occupancy
 _atom_site_fract_x
 _atom_site_fract_y
 _atom_site_fract_z
 _atom_site_thermal_displace_type
 _atom_site_B_iso_or_equiv
 _atom_site_type_symbol
Nb1 1.0000000000 0.5974958539 0.0000000000 0.5000000000  Biso 1.0 Nb
Nb2 1.0000000000 0.0000000000 0.5974958539 0.5000000000  Biso 1.0 Nb
Nb3 1.0000000000 0.4025055011 0.4025055011 0.5000000000  Biso 1.0 Nb
Re4 1.0000000000 0.2575121429 0.0000000000 0.0000000000  Biso 1.0 Re
Re5 1.0000000000 0.0000000000 0.2575121429 0.0000000000  Biso 1.0 Re
Re6 1.0000000000 0.7424875191 0.7424875191 0.0000000000  Biso 1.0 Re
Si7 1.0000000000 0.3333329680 0.6666665859 0.0000000000  Biso 1.0 Si
Si8 1.0000000000 0.6666665859 0.3333329680 0.0000000000  Biso 1.0 Si
Si9 1.0000000000 0.0000000000 0.0000000000 0.5000000000  Biso 1.0 Si
