# AFLOW.org Repositories
# Nb3Si2 #127 - (Nb3Si2_ICSD_645431) - Nb3
data_Nb3Si2
_pd_phase_name Nb3Si2
_cell_length_a  6.7657343085
_cell_length_b  6.7657343085
_cell_length_c  3.5384370143
_cell_angle_alpha  90.0000000000
_cell_angle_beta  90.0000000000
_cell_angle_gamma  90.0000000000
_symmetry_space_group_name_H-M  'P1'
_symmetry_Int_Tables_Number  1
loop_
_symmetry_equiv_pos_site_id
_symmetry_equiv_pos_as_xyz
  1  x,y,z
loop_
 _atom_site_label
 _atom_site_occupancy
 _atom_site_fract_x
 _atom_site_fract_y
 _atom_site_fract_z
 _atom_site_thermal_displace_type
 _atom_site_B_iso_or_equiv
 _atom_site_type_symbol
Nb1 1.0000000000 0.0000000000 0.0000000000 0.0000000000  Biso 1.0 Nb
Nb2 1.0000000000 0.5000000000 0.5000000000 0.0000000000  Biso 1.0 Nb
Nb3 1.0000000000 0.1714381863 0.6714381863 0.5000000000  Biso 1.0 Nb
Nb4 1.0000000000 0.8285618137 0.3285618137 0.5000000000  Biso 1.0 Nb
Nb5 1.0000000000 0.3285618137 0.1714381863 0.5000000000  Biso 1.0 Nb
Nb6 1.0000000000 0.6714381863 0.8285618137 0.5000000000  Biso 1.0 Nb
Si7 1.0000000000 0.6276204266 0.1276204266 0.0000000000  Biso 1.0 Si
Si8 1.0000000000 0.3723795734 0.8723795734 0.0000000000  Biso 1.0 Si
Si9 1.0000000000 0.8723795734 0.6276204266 0.0000000000  Biso 1.0 Si
Si10 1.0000000000 0.1276204266 0.3723795734 0.0000000000  Biso 1.0 Si
