# AFLOW.org Repositories
# Os1P1Zr1 #62 - (Os1P1Zr1_ICSD_647720) - 
data_Os1P1Zr1
_pd_phase_name Os1P1Zr1
_cell_length_a  3.9233279828
_cell_length_b  6.4866176213
_cell_length_c  7.3376713611
_cell_angle_alpha  90.0000000000
_cell_angle_beta  90.0000000000
_cell_angle_gamma  90.0000000000
_symmetry_space_group_name_H-M  'P1'
_symmetry_Int_Tables_Number  1
loop_
_symmetry_equiv_pos_site_id
_symmetry_equiv_pos_as_xyz
  1  x,y,z
loop_
 _atom_site_label
 _atom_site_occupancy
 _atom_site_fract_x
 _atom_site_fract_y
 _atom_site_fract_z
 _atom_site_thermal_displace_type
 _atom_site_B_iso_or_equiv
 _atom_site_type_symbol
Os1 1.0000000000 0.2500000000 0.1519631681 0.4393122447  Biso 1.0 Os
Os2 1.0000000000 0.7500000000 0.3480368319 0.9393122447  Biso 1.0 Os
Os3 1.0000000000 0.7500000000 0.8480368319 0.5606877553  Biso 1.0 Os
Os4 1.0000000000 0.2500000000 0.6519631681 0.0606877553  Biso 1.0 Os
P5 1.0000000000 0.2500000000 0.7781082315 0.3775234261  Biso 1.0 P
P6 1.0000000000 0.7500000000 0.7218917685 0.8775234261  Biso 1.0 P
P7 1.0000000000 0.7500000000 0.2218917685 0.6224765739  Biso 1.0 P
P8 1.0000000000 0.2500000000 0.2781082315 0.1224765739  Biso 1.0 P
Zr9 1.0000000000 0.2500000000 0.0197787523 0.8212635434  Biso 1.0 Zr
Zr10 1.0000000000 0.7500000000 0.4802212477 0.3212635434  Biso 1.0 Zr
Zr11 1.0000000000 0.7500000000 0.9802212477 0.1787364566  Biso 1.0 Zr
Zr12 1.0000000000 0.2500000000 0.5197787523 0.6787364566  Biso 1.0 Zr
