# AFLOW.org Repositories
# Os2Si2Y1 #139 - (Os2Si2Y1_ICSD_647804) -
data_Os2Si2Y1
_pd_phase_name Os2Si2Y1
_cell_length_a  5.6332349596
_cell_length_b  5.6332349596
_cell_length_c  5.6332349596
_cell_angle_alpha  136.2617867234
_cell_angle_beta  136.2617867234
_cell_angle_gamma  63.5758675176
_symmetry_space_group_name_H-M  'P1'
_symmetry_Int_Tables_Number  1
loop_
_symmetry_equiv_pos_site_id
_symmetry_equiv_pos_as_xyz
  1  x,y,z
loop_
 _atom_site_label
 _atom_site_occupancy
 _atom_site_fract_x
 _atom_site_fract_y
 _atom_site_fract_z
 _atom_site_thermal_displace_type
 _atom_site_B_iso_or_equiv
 _atom_site_type_symbol
Os1 1.0000000000 0.7500000000 0.2500000000 0.5000000000  Biso 1.0 Os
Os2 1.0000000000 0.2500000000 0.7500000000 0.5000000000  Biso 1.0 Os
Si3 1.0000000000 0.3693460392 0.3693460392 0.0000000000  Biso 1.0 Si
Si4 1.0000000000 0.6306539608 0.6306539608 0.0000000000  Biso 1.0 Si
Y5 1.0000000000 0.0000000000 0.0000000000 0.0000000000  Biso 1.0 Y
