# AFLOW.org Repositories
# Pt1Si1Zr1 #62 - (Pt1Si1Zr1_ICSD_260792) 
data_Pt1Si1Zr1
_pd_phase_name Pt1Si1Zr1
_cell_length_a  3.9170631622
_cell_length_b  6.6394105335
_cell_length_c  7.5989927597
_cell_angle_alpha  90.0000000000
_cell_angle_beta  90.0000000000
_cell_angle_gamma  90.0000000000
_symmetry_space_group_name_H-M  'P1'
_symmetry_Int_Tables_Number  1
loop_
_symmetry_equiv_pos_site_id
_symmetry_equiv_pos_as_xyz
  1  x,y,z
loop_
 _atom_site_label
 _atom_site_occupancy
 _atom_site_fract_x
 _atom_site_fract_y
 _atom_site_fract_z
 _atom_site_thermal_displace_type
 _atom_site_B_iso_or_equiv
 _atom_site_type_symbol
Pt1 1.0000000000 0.2500000000 0.1463383969 0.9359960682  Biso 1.0 Pt
Pt2 1.0000000000 0.7500000000 0.3536616031 0.4359960682  Biso 1.0 Pt
Pt3 1.0000000000 0.7500000000 0.8536616031 0.0640039318  Biso 1.0 Pt
Pt4 1.0000000000 0.2500000000 0.6463383969 0.5640039318  Biso 1.0 Pt
Si5 1.0000000000 0.2500000000 0.2643707954 0.6216910481  Biso 1.0 Si
Si6 1.0000000000 0.7500000000 0.2356292046 0.1216910481  Biso 1.0 Si
Si7 1.0000000000 0.7500000000 0.7356292046 0.3783089519  Biso 1.0 Si
Si8 1.0000000000 0.2500000000 0.7643707954 0.8783089519  Biso 1.0 Si
Zr9 1.0000000000 0.2500000000 0.0245812281 0.3215832714  Biso 1.0 Zr
Zr10 1.0000000000 0.7500000000 0.4754187719 0.8215832714  Biso 1.0 Zr
Zr11 1.0000000000 0.7500000000 0.9754187719 0.6784167286  Biso 1.0 Zr
Zr12 1.0000000000 0.2500000000 0.5245812281 0.1784167286  Biso 1.0 Zr
