# AFLOW.org Repositories
# Rb1Te2Y1 #194 - (Rb1Te2Y1_ICSD_419996) -
data_Rb1Te2Y1
_pd_phase_name Rb1Te2Y1
_cell_length_a  4.5244659176
_cell_length_b  4.5244659176
_cell_length_c  17.1466028650
_cell_angle_alpha  90.0000000000
_cell_angle_beta  90.0000000000
_cell_angle_gamma  120.0000000000
_symmetry_space_group_name_H-M  'P1'
_symmetry_Int_Tables_Number  1
loop_
_symmetry_equiv_pos_site_id
_symmetry_equiv_pos_as_xyz
  1  x,y,z
loop_
 _atom_site_label
 _atom_site_occupancy
 _atom_site_fract_x
 _atom_site_fract_y
 _atom_site_fract_z
 _atom_site_thermal_displace_type
 _atom_site_B_iso_or_equiv
 _atom_site_type_symbol
Rb1 1.0000000000 0.3333186840 0.6666813160 0.2500000000  Biso 1.0 Rb
Rb2 1.0000000000 0.6666813160 0.3333186840 0.7500000000  Biso 1.0 Rb
Te3 1.0000000000 0.3333319093 0.6666680907 0.5997158573  Biso 1.0 Te
Te4 1.0000000000 0.6666680907 0.3333319093 0.0997158573  Biso 1.0 Te
Te5 1.0000000000 0.6666680907 0.3333319093 0.4002841427  Biso 1.0 Te
Te6 1.0000000000 0.3333319093 0.6666680907 0.9002841427  Biso 1.0 Te
Y7 1.0000000000 0.0000000000 0.0000000000 0.0000000000  Biso 1.0 Y
Y8 1.0000000000 0.0000000000 0.0000000000 0.5000000000  Biso 1.0 Y
