# AFLOW.org Repositories
# Ru1Si2 #64 - (Ru1Si2_ICSD_154012) - Ru1S
data_Ru1Si2
_pd_phase_name Ru1Si2
_cell_length_a  6.5024994548
_cell_length_b  6.5024994548
_cell_length_c  8.2136589378
_cell_angle_alpha  90.0000000000
_cell_angle_beta  90.0000000000
_cell_angle_gamma  103.0585004376
_symmetry_space_group_name_H-M  'P1'
_symmetry_Int_Tables_Number  1
loop_
_symmetry_equiv_pos_site_id
_symmetry_equiv_pos_as_xyz
  1  x,y,z
loop_
 _atom_site_label
 _atom_site_occupancy
 _atom_site_fract_x
 _atom_site_fract_y
 _atom_site_fract_z
 _atom_site_thermal_displace_type
 _atom_site_B_iso_or_equiv
 _atom_site_type_symbol
Ru1 1.0000000000 0.7852468261 0.2147531739 0.0000000000  Biso 1.0 Ru
Ru2 1.0000000000 0.7147531739 0.2852468261 0.5000000000  Biso 1.0 Ru
Ru3 1.0000000000 0.2147531739 0.7852468261 0.0000000000  Biso 1.0 Ru
Ru4 1.0000000000 0.2852468261 0.7147531739 0.5000000000  Biso 1.0 Ru
Ru5 1.0000000000 0.8111907114 0.8111907114 0.8186494055  Biso 1.0 Ru
Ru6 1.0000000000 0.6888092886 0.6888092886 0.3186494055  Biso 1.0 Ru
Ru7 1.0000000000 0.3111907114 0.3111907114 0.6813505945  Biso 1.0 Ru
Ru8 1.0000000000 0.1888092886 0.1888092886 0.1813505945  Biso 1.0 Ru
Si9 1.0000000000 0.3505241118 0.0953063222 0.4435012491  Biso 1.0 Si
Si10 1.0000000000 0.1494758882 0.4046936778 0.9435012491  Biso 1.0 Si
Si11 1.0000000000 0.5953063222 0.8505241118 0.0564987509  Biso 1.0 Si
Si12 1.0000000000 0.9046936778 0.6494758882 0.5564987509  Biso 1.0 Si
Si13 1.0000000000 0.6494758882 0.9046936778 0.5564987509  Biso 1.0 Si
Si14 1.0000000000 0.8505241118 0.5953063222 0.0564987509  Biso 1.0 Si
Si15 1.0000000000 0.4046936778 0.1494758882 0.9435012491  Biso 1.0 Si
Si16 1.0000000000 0.0953063222 0.3505241118 0.4435012491  Biso 1.0 Si
Si17 1.0000000000 0.8226276846 0.0764516094 0.2750323496  Biso 1.0 Si
Si18 1.0000000000 0.6773723154 0.4235483906 0.7750323496  Biso 1.0 Si
Si19 1.0000000000 0.5764516094 0.3226276846 0.2249676504  Biso 1.0 Si
Si20 1.0000000000 0.9235483906 0.1773723154 0.7249676504  Biso 1.0 Si
Si21 1.0000000000 0.1773723154 0.9235483906 0.7249676504  Biso 1.0 Si
Si22 1.0000000000 0.3226276846 0.5764516094 0.2249676504  Biso 1.0 Si
Si23 1.0000000000 0.4235483906 0.6773723154 0.7750323496  Biso 1.0 Si
Si24 1.0000000000 0.0764516094 0.8226276846 0.2750323496  Biso 1.0 Si
