# AFLOW.org Repositories
# Ru1Sc1Si1 #189 - (Ru1Sc1Si1_ICSD_650603)
data_Ru1Sc1Si1
_pd_phase_name Ru1Sc1Si1
_cell_length_a  6.9791108722
_cell_length_b  6.9791108722
_cell_length_c  3.3921521825
_cell_angle_alpha  90.0000000000
_cell_angle_beta  90.0000000000
_cell_angle_gamma  120.0000000000
_symmetry_space_group_name_H-M  'P1'
_symmetry_Int_Tables_Number  1
loop_
_symmetry_equiv_pos_site_id
_symmetry_equiv_pos_as_xyz
  1  x,y,z
loop_
 _atom_site_label
 _atom_site_occupancy
 _atom_site_fract_x
 _atom_site_fract_y
 _atom_site_fract_z
 _atom_site_thermal_displace_type
 _atom_site_B_iso_or_equiv
 _atom_site_type_symbol
Ru1 1.0000000000 0.0000000000 0.7497965019 0.0000000000  Biso 1.0 Ru
Ru2 1.0000000000 0.2502034981 0.2502034981 0.0000000000  Biso 1.0 Ru
Ru3 1.0000000000 0.7497992039 0.0000000000 0.0000000000  Biso 1.0 Ru
Sc4 1.0000000000 0.0000000000 0.3999666454 0.5000000000  Biso 1.0 Sc
Sc5 1.0000000000 0.6000333546 0.6000333546 0.5000000000  Biso 1.0 Sc
Sc6 1.0000000000 0.3999713398 0.0000000000 0.5000000000  Biso 1.0 Sc
Si7 1.0000000000 0.6666623952 0.3333333523 0.0000000000  Biso 1.0 Si
Si8 1.0000000000 0.3333290429 0.6666666477 0.0000000000  Biso 1.0 Si
Si9 1.0000000000 0.0000000000 0.0000000000 0.5000000000  Biso 1.0 Si
