# AFLOW.org Repositories
# Ru3Th7 #186 - (Ru3Th7_ICSD_150668) - Ru3
data_Ru3Th7
_pd_phase_name Ru3Th7
_cell_length_a  10.2803248087
_cell_length_b  10.2803248087
_cell_length_c  6.5071608740
_cell_angle_alpha  90.0000000000
_cell_angle_beta  90.0000000000
_cell_angle_gamma  120.0000000000
_symmetry_space_group_name_H-M  'P1'
_symmetry_Int_Tables_Number  1
loop_
_symmetry_equiv_pos_site_id
_symmetry_equiv_pos_as_xyz
  1  x,y,z
loop_
 _atom_site_label
 _atom_site_occupancy
 _atom_site_fract_x
 _atom_site_fract_y
 _atom_site_fract_z
 _atom_site_thermal_displace_type
 _atom_site_B_iso_or_equiv
 _atom_site_type_symbol
Ru1 1.0000000000 0.1873318831 0.3746637662 0.0514088893  Biso 1.0 Ru
Ru2 1.0000000000 0.6253324281 0.8126702982 0.0514153942  Biso 1.0 Ru
Ru3 1.0000000000 0.1873378701 0.8126702982 0.0514153942  Biso 1.0 Ru
Ru4 1.0000000000 0.8126681169 0.6253362338 0.5514088893  Biso 1.0 Ru
Ru5 1.0000000000 0.3746675719 0.1873297018 0.5514153942  Biso 1.0 Ru
Ru6 1.0000000000 0.8126621299 0.1873297018 0.5514153942  Biso 1.0 Ru
Th7 1.0000000000 0.6666638841 0.3333277682 0.7898216303  Biso 1.0 Th
Th8 1.0000000000 0.3333361159 0.6666722318 0.2898216303  Biso 1.0 Th
Th9 1.0000000000 0.8738472947 0.7476945893 0.9975919307  Biso 1.0 Th
Th10 1.0000000000 0.2523136823 0.1261494047 0.9975797683  Biso 1.0 Th
Th11 1.0000000000 0.8738357223 0.1261494047 0.9975797683  Biso 1.0 Th
Th12 1.0000000000 0.1261527053 0.2523054107 0.4975919307  Biso 1.0 Th
Th13 1.0000000000 0.7476863177 0.8738505953 0.4975797683  Biso 1.0 Th
Th14 1.0000000000 0.1261642777 0.8738505953 0.4975797683  Biso 1.0 Th
Th15 1.0000000000 0.4589261557 0.9178523115 0.8017363341  Biso 1.0 Th
Th16 1.0000000000 0.0821476590 0.5410811737 0.8017254453  Biso 1.0 Th
Th17 1.0000000000 0.4589335147 0.5410811737 0.8017254453  Biso 1.0 Th
Th18 1.0000000000 0.5410738443 0.0821476885 0.3017363341  Biso 1.0 Th
Th19 1.0000000000 0.9178523410 0.4589188263 0.3017254453  Biso 1.0 Th
Th20 1.0000000000 0.5410664853 0.4589188263 0.3017254453  Biso 1.0 Th
