# AFLOW.org Repositories
# Si2W3 #127 - (Si2W3_ICSD_652552) - Si2W3
data_Si2W3
_pd_phase_name Si2W3
_cell_length_a  6.6286788426
_cell_length_b  6.6286788426
_cell_length_c  3.3549383637
_cell_angle_alpha  90.0000000000
_cell_angle_beta  90.0000000000
_cell_angle_gamma  90.0000000000
_symmetry_space_group_name_H-M  'P1'
_symmetry_Int_Tables_Number  1
loop_
_symmetry_equiv_pos_site_id
_symmetry_equiv_pos_as_xyz
  1  x,y,z
loop_
 _atom_site_label
 _atom_site_occupancy
 _atom_site_fract_x
 _atom_site_fract_y
 _atom_site_fract_z
 _atom_site_thermal_displace_type
 _atom_site_B_iso_or_equiv
 _atom_site_type_symbol
Si1 1.0000000000 0.6337040474 0.1337040474 0.0000000000  Biso 1.0 Si
Si2 1.0000000000 0.3662959526 0.8662959526 0.0000000000  Biso 1.0 Si
Si3 1.0000000000 0.8662959526 0.6337040474 0.0000000000  Biso 1.0 Si
Si4 1.0000000000 0.1337040474 0.3662959526 0.0000000000  Biso 1.0 Si
W5 1.0000000000 0.0000000000 0.0000000000 0.0000000000  Biso 1.0 W
W6 1.0000000000 0.5000000000 0.5000000000 0.0000000000  Biso 1.0 W
W7 1.0000000000 0.1606639542 0.6606639542 0.5000000000  Biso 1.0 W
W8 1.0000000000 0.8393360458 0.3393360458 0.5000000000  Biso 1.0 W
W9 1.0000000000 0.3393360458 0.1606639542 0.5000000000  Biso 1.0 W
W10 1.0000000000 0.6606639542 0.8393360458 0.5000000000  Biso 1.0 W
