# AFLOW.org Repositories
# Ag1In1S2 #122 - (Ag1In1S2_ICSD_156129) -
data_Ag1In1S2
_pd_phase_name Ag1In1S2
_cell_length_a  7.1265176413
_cell_length_b  7.1265176413
_cell_length_c  7.1265176413
_cell_angle_alpha  130.5076429330
_cell_angle_beta  130.5076429330
_cell_angle_gamma  72.5965078122
_symmetry_space_group_name_H-M  'P1'
_symmetry_Int_Tables_Number  1
loop_
_symmetry_equiv_pos_site_id
_symmetry_equiv_pos_as_xyz
  1  x,y,z
loop_
 _atom_site_label
 _atom_site_occupancy
 _atom_site_fract_x
 _atom_site_fract_y
 _atom_site_fract_z
 _atom_site_thermal_displace_type
 _atom_site_B_iso_or_equiv
 _atom_site_type_symbol
Ag1 1.0000000000 0.0000000000 0.0000000000 0.0000000000  Biso 1.0 Ag
Ag2 1.0000000000 0.2500000000 0.7500000000 0.5000000000  Biso 1.0 Ag
In3 1.0000000000 0.5000000000 0.5000000000 0.0000000000  Biso 1.0 In
In4 1.0000000000 0.7500000000 0.2500000000 0.5000000000  Biso 1.0 In
S5 1.0000000000 0.6250000000 0.1415935042 0.0165935042  Biso 1.0 S
S6 1.0000000000 0.1250000000 0.6084064958 0.9834064958  Biso 1.0 S
S7 1.0000000000 0.3915935042 0.3750000000 0.5165935042  Biso 1.0 S
S8 1.0000000000 0.8584064958 0.8750000000 0.4834064958  Biso 1.0 S
