# AFLOW.org Repositories
# Ag1Si1Y1 #189 - (Ag1Si1Y1_ICSD_605850) -
data_Ag1Si1Y1
_pd_phase_name Ag1Si1Y1
_cell_length_a  7.1005275786
_cell_length_b  7.1005275786
_cell_length_c  4.1925498407
_cell_angle_alpha  90.0000000000
_cell_angle_beta  90.0000000000
_cell_angle_gamma  120.0000000000
_symmetry_space_group_name_H-M  'P1'
_symmetry_Int_Tables_Number  1
loop_
_symmetry_equiv_pos_site_id
_symmetry_equiv_pos_as_xyz
  1  x,y,z
loop_
 _atom_site_label
 _atom_site_occupancy
 _atom_site_fract_x
 _atom_site_fract_y
 _atom_site_fract_z
 _atom_site_thermal_displace_type
 _atom_site_B_iso_or_equiv
 _atom_site_type_symbol
Ag1 1.0000000000 0.0000000000 0.7516735609 0.0000000000  Biso 1.0 Ag
Ag2 1.0000000000 0.2483264391 0.2483264391 0.0000000000  Biso 1.0 Ag
Ag3 1.0000000000 0.7516743379 0.0000000000 0.0000000000  Biso 1.0 Ag
Si4 1.0000000000 0.6666669749 0.3333331266 0.0000000000  Biso 1.0 Si
Si5 1.0000000000 0.3333338482 0.6666668734 0.0000000000  Biso 1.0 Si
Si6 1.0000000000 0.0000000000 0.0000000000 0.5000000000  Biso 1.0 Si
Y7 1.0000000000 0.0000000000 0.4173640943 0.5000000000  Biso 1.0 Y
Y8 1.0000000000 0.5826359057 0.5826359057 0.5000000000  Biso 1.0 Y
Y9 1.0000000000 0.4173634933 0.0000000000 0.5000000000  Biso 1.0 Y
