# AFLOW.org Repositories
# Al1C3Nb4 #194 - (Al1C3Nb4_ICSD_160754) -
data_Al1C3Nb4
_pd_phase_name Al1C3Nb4
_cell_length_a  3.1585917061
_cell_length_b  3.1585917061
_cell_length_c  24.3389744544
_cell_angle_alpha  90.0000000000
_cell_angle_beta  90.0000000000
_cell_angle_gamma  120.0000000000
_symmetry_space_group_name_H-M  'P1'
_symmetry_Int_Tables_Number  1
loop_
_symmetry_equiv_pos_site_id
_symmetry_equiv_pos_as_xyz
  1  x,y,z
loop_
 _atom_site_label
 _atom_site_occupancy
 _atom_site_fract_x
 _atom_site_fract_y
 _atom_site_fract_z
 _atom_site_thermal_displace_type
 _atom_site_B_iso_or_equiv
 _atom_site_type_symbol
Al1 1.0000000000 0.6666970134 0.3333940268 0.2500000000  Biso 1.0 Al
Al2 1.0000000000 0.3333029866 0.6666059732 0.7500000000  Biso 1.0 Al
C3 1.0000000000 0.0000000000 0.0000000000 0.0000000000  Biso 1.0 C
C4 1.0000000000 0.0000000000 0.0000000000 0.5000000000  Biso 1.0 C
C5 1.0000000000 0.3333164323 0.6666328646 0.1085354623  Biso 1.0 C
C6 1.0000000000 0.6666835677 0.3333671354 0.6085354623  Biso 1.0 C
C7 1.0000000000 0.6666835677 0.3333671354 0.8914645377  Biso 1.0 C
C8 1.0000000000 0.3333164323 0.6666328646 0.3914645377  Biso 1.0 C
Nb9 1.0000000000 0.6666869510 0.3333739019 0.0552153543  Biso 1.0 Nb
Nb10 1.0000000000 0.3333130490 0.6666260981 0.5552153543  Biso 1.0 Nb
Nb11 1.0000000000 0.3333130490 0.6666260981 0.9447846457  Biso 1.0 Nb
Nb12 1.0000000000 0.6666869510 0.3333739019 0.4447846457  Biso 1.0 Nb
Nb13 1.0000000000 0.0000000000 0.0000000000 0.1574431425  Biso 1.0 Nb
Nb14 1.0000000000 0.0000000000 0.0000000000 0.6574431425  Biso 1.0 Nb
Nb15 1.0000000000 0.0000000000 0.0000000000 0.8425568575  Biso 1.0 Nb
Nb16 1.0000000000 0.0000000000 0.0000000000 0.3425568575  Biso 1.0 Nb
