# AFLOW.org Repositories
# Al1Ge1Sr1 #187 - (Al1Ge1Sr1_ICSD_166379)
data_Al1Ge1Sr1
_pd_phase_name Al1Ge1Sr1
_cell_length_a  4.3325362464
_cell_length_b  4.3325362464
_cell_length_c  4.7554614907
_cell_angle_alpha  90.0000000000
_cell_angle_beta  90.0000000000
_cell_angle_gamma  120.0000000000
_symmetry_space_group_name_H-M  'P1'
_symmetry_Int_Tables_Number  1
loop_
_symmetry_equiv_pos_site_id
_symmetry_equiv_pos_as_xyz
  1  x,y,z
loop_
 _atom_site_label
 _atom_site_occupancy
 _atom_site_fract_x
 _atom_site_fract_y
 _atom_site_fract_z
 _atom_site_thermal_displace_type
 _atom_site_B_iso_or_equiv
 _atom_site_type_symbol
Al1 1.0000000000 0.3333475430 0.6666737715 0.5000000000  Biso 1.0 Al
Ge2 1.0000000000 0.6666589231 0.3333294616 0.5000000000  Biso 1.0 Ge
Sr3 1.0000000000 0.0000000000 0.0000000000 0.0000000000  Biso 1.0 Sr
