# AFLOW.org Repositories
# Al1H4Na1 #36 - (Al1H4Na1_ICSD_165838) - 
data_Al1H4Na1
_pd_phase_name Al1H4Na1
_cell_length_a  7.2076100317
_cell_length_b  7.2076100317
_cell_length_c  5.0994141602
_cell_angle_alpha  90.0000000000
_cell_angle_beta  90.0000000000
_cell_angle_gamma  151.6330884933
_symmetry_space_group_name_H-M  'P1'
_symmetry_Int_Tables_Number  1
loop_
_symmetry_equiv_pos_site_id
_symmetry_equiv_pos_as_xyz
  1  x,y,z
loop_
 _atom_site_label
 _atom_site_occupancy
 _atom_site_fract_x
 _atom_site_fract_y
 _atom_site_fract_z
 _atom_site_thermal_displace_type
 _atom_site_B_iso_or_equiv
 _atom_site_type_symbol
Al1 1.0000000000 0.4151324403 0.5848675597 0.7943403223  Biso 1.0 Al
Al2 1.0000000000 0.5848675597 0.4151324403 0.2943403223  Biso 1.0 Al
H3 1.0000000000 0.3483709808 0.6516290192 0.5219086485  Biso 1.0 H
H4 1.0000000000 0.6516290192 0.3483709808 0.0219086485  Biso 1.0 H
H5 1.0000000000 0.3167862231 0.6832137769 0.9894524097  Biso 1.0 H
H6 1.0000000000 0.6832137769 0.3167862231 0.4894524097  Biso 1.0 H
H7 1.0000000000 0.0766686215 0.9233313785 0.3145257865  Biso 1.0 H
H8 1.0000000000 0.9233313785 0.0766686215 0.8145257865  Biso 1.0 H
H9 1.0000000000 0.5213957524 0.4786042476 0.6142929674  Biso 1.0 H
H10 1.0000000000 0.4786042476 0.5213957524 0.1142929674  Biso 1.0 H
Na11 1.0000000000 0.1724758198 0.8275241802 0.7643798656  Biso 1.0 Na
Na12 1.0000000000 0.8275241802 0.1724758198 0.2643798656  Biso 1.0 Na
