# AFLOW.org Repositories
# Al1Y1Zn1 #194 - (Al1Y1Zn1_ICSD_609667) -
data_Al1Y1Zn1
_pd_phase_name Al1Y1Zn1
_cell_length_a  4.4728698138
_cell_length_b  4.4728698138
_cell_length_c  7.2388009036
_cell_angle_alpha  90.0000000000
_cell_angle_beta  90.0000000000
_cell_angle_gamma  120.0000000000
_symmetry_space_group_name_H-M  'P1'
_symmetry_Int_Tables_Number  1
loop_
_symmetry_equiv_pos_site_id
_symmetry_equiv_pos_as_xyz
  1  x,y,z
loop_
 _atom_site_label
 _atom_site_occupancy
 _atom_site_fract_x
 _atom_site_fract_y
 _atom_site_fract_z
 _atom_site_thermal_displace_type
 _atom_site_B_iso_or_equiv
 _atom_site_type_symbol
Al1 1.0000000000 0.6666687257 0.3333374514 0.2500000000  Biso 1.0 Al
Al2 1.0000000000 0.3333312743 0.6666625486 0.7500000000  Biso 1.0 Al
Y3 1.0000000000 0.0000000000 0.0000000000 0.0000000000  Biso 1.0 Y
Y4 1.0000000000 0.0000000000 0.0000000000 0.5000000000  Biso 1.0 Y
Zn5 1.0000000000 0.6666653589 0.3333307179 0.7500000000  Biso 1.0 Zn
Zn6 1.0000000000 0.3333346411 0.6666692821 0.2500000000  Biso 1.0 Zn
