# AFLOW.org Repositories
# Al2Ni1Zr6 #189 - (Al2Ni1Zr6_ICSD_160911)
data_Al2Ni1Zr6
_pd_phase_name Al2Ni1Zr6
_cell_length_a  7.9420647117
_cell_length_b  7.9420647117
_cell_length_c  3.3521013597
_cell_angle_alpha  90.0000000000
_cell_angle_beta  90.0000000000
_cell_angle_gamma  120.0000000000
_symmetry_space_group_name_H-M  'P1'
_symmetry_Int_Tables_Number  1
loop_
_symmetry_equiv_pos_site_id
_symmetry_equiv_pos_as_xyz
  1  x,y,z
loop_
 _atom_site_label
 _atom_site_occupancy
 _atom_site_fract_x
 _atom_site_fract_y
 _atom_site_fract_z
 _atom_site_thermal_displace_type
 _atom_site_B_iso_or_equiv
 _atom_site_type_symbol
Al1 1.0000000000 0.3333312531 0.6666679297 0.0000000000  Biso 1.0 Al
Al2 1.0000000000 0.6666679297 0.3333312531 0.0000000000  Biso 1.0 Al
Ni3 1.0000000000 0.0000000000 0.0000000000 0.5000000000  Biso 1.0 Ni
Zr4 1.0000000000 0.2548790848 0.0000000000 0.0000000000  Biso 1.0 Zr
Zr5 1.0000000000 0.0000000000 0.2548790848 0.0000000000  Biso 1.0 Zr
Zr6 1.0000000000 0.7451206365 0.7451206365 0.0000000000  Biso 1.0 Zr
Zr7 1.0000000000 0.5969938755 0.0000000000 0.5000000000  Biso 1.0 Zr
Zr8 1.0000000000 0.0000000000 0.5969938755 0.5000000000  Biso 1.0 Zr
Zr9 1.0000000000 0.4030099525 0.4030099525 0.5000000000  Biso 1.0 Zr
