# AFLOW.org Repositories
# Al3Hf5N1 #193 - (Al3Hf5N1_ICSD_603995) -
data_Al3Hf5N1
_pd_phase_name Al3Hf5N1
_cell_length_a  8.0953954889
_cell_length_b  8.0953954889
_cell_length_c  5.6578020998
_cell_angle_alpha  90.0000000000
_cell_angle_beta  90.0000000000
_cell_angle_gamma  120.0000000000
_symmetry_space_group_name_H-M  'P1'
_symmetry_Int_Tables_Number  1
loop_
_symmetry_equiv_pos_site_id
_symmetry_equiv_pos_as_xyz
  1  x,y,z
loop_
 _atom_site_label
 _atom_site_occupancy
 _atom_site_fract_x
 _atom_site_fract_y
 _atom_site_fract_z
 _atom_site_thermal_displace_type
 _atom_site_B_iso_or_equiv
 _atom_site_type_symbol
Al1 1.0000000000 0.0000000000 0.4034459850 0.2500000000  Biso 1.0 Al
Al2 1.0000000000 0.5965540150 0.5965540150 0.2500000000  Biso 1.0 Al
Al3 1.0000000000 0.4034510707 0.0000000000 0.2500000000  Biso 1.0 Al
Al4 1.0000000000 0.0000000000 0.5965540150 0.7500000000  Biso 1.0 Al
Al5 1.0000000000 0.4034459850 0.4034459850 0.7500000000  Biso 1.0 Al
Al6 1.0000000000 0.5965489293 0.0000000000 0.7500000000  Biso 1.0 Al
Hf7 1.0000000000 0.6666679848 0.3333359696 0.0000000000  Biso 1.0 Hf
Hf8 1.0000000000 0.3333320152 0.6666640304 0.5000000000  Biso 1.0 Hf
Hf9 1.0000000000 0.3333320152 0.6666640304 0.0000000000  Biso 1.0 Hf
Hf10 1.0000000000 0.6666679848 0.3333359696 0.5000000000  Biso 1.0 Hf
Hf11 1.0000000000 0.0000000000 0.7756435599 0.2500000000  Biso 1.0 Hf
Hf12 1.0000000000 0.2243564401 0.2243564401 0.2500000000  Biso 1.0 Hf
Hf13 1.0000000000 0.7756459203 0.0000000000 0.2500000000  Biso 1.0 Hf
Hf14 1.0000000000 0.0000000000 0.2243564401 0.7500000000  Biso 1.0 Hf
Hf15 1.0000000000 0.7756435599 0.7756435599 0.7500000000  Biso 1.0 Hf
Hf16 1.0000000000 0.2243540797 0.0000000000 0.7500000000  Biso 1.0 Hf
N17 1.0000000000 0.0000000000 0.0000000000 0.0000000000  Biso 1.0 N
N18 1.0000000000 0.0000000000 0.0000000000 0.5000000000  Biso 1.0 N
