# AFLOW.org Repositories
# Al8Er1Mn4 #139 - (Al8Er1Mn4_ICSD_607409)
data_Al8Er1Mn4
_pd_phase_name Al8Er1Mn4
_cell_length_a  6.6924273294
_cell_length_b  6.6924273294
_cell_length_c  6.6924273294
_cell_angle_alpha  97.6927011353
_cell_angle_beta  97.6927011353
_cell_angle_gamma  137.0778860610
_symmetry_space_group_name_H-M  'P1'
_symmetry_Int_Tables_Number  1
loop_
_symmetry_equiv_pos_site_id
_symmetry_equiv_pos_as_xyz
  1  x,y,z
loop_
 _atom_site_label
 _atom_site_occupancy
 _atom_site_fract_x
 _atom_site_fract_y
 _atom_site_fract_z
 _atom_site_thermal_displace_type
 _atom_site_B_iso_or_equiv
 _atom_site_type_symbol
Al1 1.0000000000 0.6568948288 0.0000000000 0.6568948288  Biso 1.0 Al
Al2 1.0000000000 0.3431051712 0.0000000000 0.3431051712  Biso 1.0 Al
Al3 1.0000000000 0.0000000000 0.3431051712 0.3431051712  Biso 1.0 Al
Al4 1.0000000000 0.0000000000 0.6568948288 0.6568948288  Biso 1.0 Al
Al5 1.0000000000 0.7165426076 0.5000000000 0.2165426076  Biso 1.0 Al
Al6 1.0000000000 0.2834573924 0.5000000000 0.7834573924  Biso 1.0 Al
Al7 1.0000000000 0.5000000000 0.2834573924 0.7834573924  Biso 1.0 Al
Al8 1.0000000000 0.5000000000 0.7165426076 0.2165426076  Biso 1.0 Al
Er9 1.0000000000 0.0000000000 0.0000000000 0.0000000000  Biso 1.0 Er
Mn10 1.0000000000 0.0000000000 0.5000000000 0.0000000000  Biso 1.0 Mn
Mn11 1.0000000000 0.5000000000 0.0000000000 0.0000000000  Biso 1.0 Mn
Mn12 1.0000000000 0.5000000000 0.5000000000 0.5000000000  Biso 1.0 Mn
Mn13 1.0000000000 0.0000000000 0.0000000000 0.5000000000  Biso 1.0 Mn
