# AFLOW.org Repositories
# Al8Fe4La1 #139 - (Al8Fe4La1_ICSD_607554)
data_Al8Fe4La1
_pd_phase_name Al8Fe4La1
_cell_length_a  6.9314741972
_cell_length_b  6.9314741972
_cell_length_c  6.9314741972
_cell_angle_alpha  98.0822774698
_cell_angle_beta  98.0822774698
_cell_angle_gamma  135.9563199328
_symmetry_space_group_name_H-M  'P1'
_symmetry_Int_Tables_Number  1
loop_
_symmetry_equiv_pos_site_id
_symmetry_equiv_pos_as_xyz
  1  x,y,z
loop_
 _atom_site_label
 _atom_site_occupancy
 _atom_site_fract_x
 _atom_site_fract_y
 _atom_site_fract_z
 _atom_site_thermal_displace_type
 _atom_site_B_iso_or_equiv
 _atom_site_type_symbol
Al1 1.0000000000 0.0000000000 0.6515142952 0.6515142952  Biso 1.0 Al
Al2 1.0000000000 0.0000000000 0.3484857048 0.3484857048  Biso 1.0 Al
Al3 1.0000000000 0.3484857048 0.0000000000 0.3484857048  Biso 1.0 Al
Al4 1.0000000000 0.6515142952 0.0000000000 0.6515142952  Biso 1.0 Al
Al5 1.0000000000 0.5000000000 0.7292219460 0.2292219460  Biso 1.0 Al
Al6 1.0000000000 0.5000000000 0.2707780540 0.7707780540  Biso 1.0 Al
Al7 1.0000000000 0.2707780540 0.5000000000 0.7707780540  Biso 1.0 Al
Al8 1.0000000000 0.7292219460 0.5000000000 0.2292219460  Biso 1.0 Al
Fe9 1.0000000000 0.0000000000 0.5000000000 0.0000000000  Biso 1.0 Fe
Fe10 1.0000000000 0.5000000000 0.0000000000 0.0000000000  Biso 1.0 Fe
Fe11 1.0000000000 0.0000000000 0.0000000000 0.5000000000  Biso 1.0 Fe
Fe12 1.0000000000 0.5000000000 0.5000000000 0.5000000000  Biso 1.0 Fe
La13 1.0000000000 0.0000000000 0.0000000000 0.0000000000  Biso 1.0 La
