# AFLOW.org Repositories
# As2Ba1Rh2 #139 - (As2Ba1Rh2_ICSD_165121)
data_As2Ba1Rh2
_pd_phase_name As2Ba1Rh2
_cell_length_a  7.0970840854
_cell_length_b  7.0970840854
_cell_length_c  7.0970840854
_cell_angle_alpha  146.6543968325
_cell_angle_beta  146.6543968325
_cell_angle_gamma  47.8757780869
_symmetry_space_group_name_H-M  'P1'
_symmetry_Int_Tables_Number  1
loop_
_symmetry_equiv_pos_site_id
_symmetry_equiv_pos_as_xyz
  1  x,y,z
loop_
 _atom_site_label
 _atom_site_occupancy
 _atom_site_fract_x
 _atom_site_fract_y
 _atom_site_fract_z
 _atom_site_thermal_displace_type
 _atom_site_B_iso_or_equiv
 _atom_site_type_symbol
As1 1.0000000000 0.3565758437 0.3565758437 0.0000000000  Biso 1.0 As
As2 1.0000000000 0.6434241563 0.6434241563 0.0000000000  Biso 1.0 As
Ba3 1.0000000000 0.0000000000 0.0000000000 0.0000000000  Biso 1.0 Ba
Rh4 1.0000000000 0.7500000000 0.2500000000 0.5000000000  Biso 1.0 Rh
Rh5 1.0000000000 0.2500000000 0.7500000000 0.5000000000  Biso 1.0 Rh
