# AFLOW.org Repositories
# Au1Ba1P1 #194 - (Au1Ba1P1_ICSD_420340) -
data_Au1Ba1P1
_pd_phase_name Au1Ba1P1
_cell_length_a  4.4874739960
_cell_length_b  4.4874739960
_cell_length_c  9.1038515290
_cell_angle_alpha  90.0000000000
_cell_angle_beta  90.0000000000
_cell_angle_gamma  120.0000000000
_symmetry_space_group_name_H-M  'P1'
_symmetry_Int_Tables_Number  1
loop_
_symmetry_equiv_pos_site_id
_symmetry_equiv_pos_as_xyz
  1  x,y,z
loop_
 _atom_site_label
 _atom_site_occupancy
 _atom_site_fract_x
 _atom_site_fract_y
 _atom_site_fract_z
 _atom_site_thermal_displace_type
 _atom_site_B_iso_or_equiv
 _atom_site_type_symbol
Au1 1.0000000000 0.3333199141 0.6666800859 0.7500000000  Biso 1.0 Au
Au2 1.0000000000 0.6666800859 0.3333199141 0.2500000000  Biso 1.0 Au
Ba3 1.0000000000 0.0000000000 0.0000000000 0.0000000000  Biso 1.0 Ba
Ba4 1.0000000000 0.0000000000 0.0000000000 0.5000000000  Biso 1.0 Ba
P5 1.0000000000 0.3333214455 0.6666785545 0.2500000000  Biso 1.0 P
P6 1.0000000000 0.6666785545 0.3333214455 0.7500000000  Biso 1.0 P
