# AFLOW.org Repositories
# Au1La1 #63 - (Au1La1_ICSD_612099) - Au1L
data_Au1La1
_pd_phase_name Au1La1
_cell_length_a  6.0929464032
_cell_length_b  6.0929464032
_cell_length_c  4.9085571105
_cell_angle_alpha  90.0000000000
_cell_angle_beta  90.0000000000
_cell_angle_gamma  141.4709109181
_symmetry_space_group_name_H-M  'P1'
_symmetry_Int_Tables_Number  1
loop_
_symmetry_equiv_pos_site_id
_symmetry_equiv_pos_as_xyz
  1  x,y,z
loop_
 _atom_site_label
 _atom_site_occupancy
 _atom_site_fract_x
 _atom_site_fract_y
 _atom_site_fract_z
 _atom_site_thermal_displace_type
 _atom_site_B_iso_or_equiv
 _atom_site_type_symbol
Au1 1.0000000000 0.4148187459 0.5851812541 0.7500000000  Biso 1.0 Au
Au2 1.0000000000 0.5851812541 0.4148187459 0.2500000000  Biso 1.0 Au
La3 1.0000000000 0.1367474608 0.8632525392 0.7500000000  Biso 1.0 La
La4 1.0000000000 0.8632525392 0.1367474608 0.2500000000  Biso 1.0 La
