# AFLOW.org Repositories
# Au2In1Tb2 #127 - (Au2In1Tb2_ICSD_658837)
data_Au2In1Tb2
_pd_phase_name Au2In1Tb2
_cell_length_a  7.9352155975
_cell_length_b  7.9352155975
_cell_length_c  3.7751515429
_cell_angle_alpha  90.0000000000
_cell_angle_beta  90.0000000000
_cell_angle_gamma  90.0000000000
_symmetry_space_group_name_H-M  'P1'
_symmetry_Int_Tables_Number  1
loop_
_symmetry_equiv_pos_site_id
_symmetry_equiv_pos_as_xyz
  1  x,y,z
loop_
 _atom_site_label
 _atom_site_occupancy
 _atom_site_fract_x
 _atom_site_fract_y
 _atom_site_fract_z
 _atom_site_thermal_displace_type
 _atom_site_B_iso_or_equiv
 _atom_site_type_symbol
Au1 1.0000000000 0.6285082576 0.1285082576 0.0000000000  Biso 1.0 Au
Au2 1.0000000000 0.3714917424 0.8714917424 0.0000000000  Biso 1.0 Au
Au3 1.0000000000 0.8714917424 0.6285082576 0.0000000000  Biso 1.0 Au
Au4 1.0000000000 0.1285082576 0.3714917424 0.0000000000  Biso 1.0 Au
In5 1.0000000000 0.0000000000 0.0000000000 0.0000000000  Biso 1.0 In
In6 1.0000000000 0.5000000000 0.5000000000 0.0000000000  Biso 1.0 In
Tb7 1.0000000000 0.1705142838 0.6705142838 0.5000000000  Biso 1.0 Tb
Tb8 1.0000000000 0.8294857162 0.3294857162 0.5000000000  Biso 1.0 Tb
Tb9 1.0000000000 0.3294857162 0.1705142838 0.5000000000  Biso 1.0 Tb
Tb10 1.0000000000 0.6705142838 0.8294857162 0.5000000000  Biso 1.0 Tb
