# AFLOW.org Repositories
# B1C2N1 #17 - (B1C2N1_ICSD_93040) - B1C2N
data_B1C2N1
_pd_phase_name B1C2N1
_cell_length_a  3.6010487176
_cell_length_b  3.6072065088
_cell_length_c  3.6499077212
_cell_angle_alpha  90.0000000000
_cell_angle_beta  90.0000000000
_cell_angle_gamma  90.0000000000
_symmetry_space_group_name_H-M  'P1'
_symmetry_Int_Tables_Number  1
loop_
_symmetry_equiv_pos_site_id
_symmetry_equiv_pos_as_xyz
  1  x,y,z
loop_
 _atom_site_label
 _atom_site_occupancy
 _atom_site_fract_x
 _atom_site_fract_y
 _atom_site_fract_z
 _atom_site_thermal_displace_type
 _atom_site_B_iso_or_equiv
 _atom_site_type_symbol
B1 1.0000000000 0.7471408246 0.7500000000 0.0000000000  Biso 1.0 B
B2 1.0000000000 0.2528591754 0.2500000000 0.0000000000  Biso 1.0 B
C3 1.0000000000 0.5000000000 0.0000000000 0.2575366908  Biso 1.0 C
C4 1.0000000000 0.5000000000 0.5000000000 0.7424633092  Biso 1.0 C
C5 1.0000000000 0.2550775952 0.7500000000 0.5000000000  Biso 1.0 C
C6 1.0000000000 0.7449224048 0.2500000000 0.5000000000  Biso 1.0 C
N7 1.0000000000 0.0000000000 0.0000000000 0.7420169416  Biso 1.0 N
N8 1.0000000000 0.0000000000 0.5000000000 0.2579830584  Biso 1.0 N
