# AFLOW.org Repositories
# B1Ge3Nb5 #193 - (B1Ge3Nb5_ICSD_614400) -
data_B1Ge3Nb5
_pd_phase_name B1Ge3Nb5
_cell_length_a  7.7939218081
_cell_length_b  7.7939218081
_cell_length_c  5.3843358075
_cell_angle_alpha  90.0000000000
_cell_angle_beta  90.0000000000
_cell_angle_gamma  120.0000000000
_symmetry_space_group_name_H-M  'P1'
_symmetry_Int_Tables_Number  1
loop_
_symmetry_equiv_pos_site_id
_symmetry_equiv_pos_as_xyz
  1  x,y,z
loop_
 _atom_site_label
 _atom_site_occupancy
 _atom_site_fract_x
 _atom_site_fract_y
 _atom_site_fract_z
 _atom_site_thermal_displace_type
 _atom_site_B_iso_or_equiv
 _atom_site_type_symbol
B1 1.0000000000 0.0000000000 0.0000000000 0.0000000000  Biso 1.0 B
B2 1.0000000000 0.0000000000 0.0000000000 0.5000000000  Biso 1.0 B
Ge3 1.0000000000 0.5991239776 0.0000000000 0.2500000000  Biso 1.0 Ge
Ge4 1.0000000000 0.0000000000 0.5991239776 0.2500000000  Biso 1.0 Ge
Ge5 1.0000000000 0.4008826340 0.4008826340 0.2500000000  Biso 1.0 Ge
Ge6 1.0000000000 0.4008760224 0.0000000000 0.7500000000  Biso 1.0 Ge
Ge7 1.0000000000 0.0000000000 0.4008760224 0.7500000000  Biso 1.0 Ge
Ge8 1.0000000000 0.5991173660 0.5991173660 0.7500000000  Biso 1.0 Ge
Nb9 1.0000000000 0.3333323732 0.6666676268 0.0000000000  Biso 1.0 Nb
Nb10 1.0000000000 0.6666676268 0.3333323732 0.5000000000  Biso 1.0 Nb
Nb11 1.0000000000 0.6666676268 0.3333323732 0.0000000000  Biso 1.0 Nb
Nb12 1.0000000000 0.3333323732 0.6666676268 0.5000000000  Biso 1.0 Nb
Nb13 1.0000000000 0.2436200235 0.0000000000 0.2500000000  Biso 1.0 Nb
Nb14 1.0000000000 0.0000000000 0.2436200235 0.2500000000  Biso 1.0 Nb
Nb15 1.0000000000 0.7563837626 0.7563837626 0.2500000000  Biso 1.0 Nb
Nb16 1.0000000000 0.7563799765 0.0000000000 0.7500000000  Biso 1.0 Nb
Nb17 1.0000000000 0.0000000000 0.7563799765 0.7500000000  Biso 1.0 Nb
Nb18 1.0000000000 0.2436162374 0.2436162374 0.7500000000  Biso 1.0 Nb
