# AFLOW.org Repositories
# B1Ge3Ta5 #193 - (B1Ge3Ta5_ICSD_614404) -
data_B1Ge3Ta5
_pd_phase_name B1Ge3Ta5
_cell_length_a  7.7751559988
_cell_length_b  7.7751559988
_cell_length_c  5.4112271371
_cell_angle_alpha  90.0000000000
_cell_angle_beta  90.0000000000
_cell_angle_gamma  120.0000000000
_symmetry_space_group_name_H-M  'P1'
_symmetry_Int_Tables_Number  1
loop_
_symmetry_equiv_pos_site_id
_symmetry_equiv_pos_as_xyz
  1  x,y,z
loop_
 _atom_site_label
 _atom_site_occupancy
 _atom_site_fract_x
 _atom_site_fract_y
 _atom_site_fract_z
 _atom_site_thermal_displace_type
 _atom_site_B_iso_or_equiv
 _atom_site_type_symbol
B1 1.0000000000 0.0000000000 0.0000000000 0.0000000000  Biso 1.0 B
B2 1.0000000000 0.0000000000 0.0000000000 0.5000000000  Biso 1.0 B
Ge3 1.0000000000 0.0000000000 0.4017210822 0.2500000000  Biso 1.0 Ge
Ge4 1.0000000000 0.5982789178 0.5982789178 0.2500000000  Biso 1.0 Ge
Ge5 1.0000000000 0.4017278704 0.0000000000 0.2500000000  Biso 1.0 Ge
Ge6 1.0000000000 0.0000000000 0.5982789178 0.7500000000  Biso 1.0 Ge
Ge7 1.0000000000 0.4017210822 0.4017210822 0.7500000000  Biso 1.0 Ge
Ge8 1.0000000000 0.5982721296 0.0000000000 0.7500000000  Biso 1.0 Ge
Ta9 1.0000000000 0.6666668202 0.3333336404 0.0000000000  Biso 1.0 Ta
Ta10 1.0000000000 0.3333331798 0.6666663596 0.5000000000  Biso 1.0 Ta
Ta11 1.0000000000 0.3333331798 0.6666663596 0.0000000000  Biso 1.0 Ta
Ta12 1.0000000000 0.6666668202 0.3333336404 0.5000000000  Biso 1.0 Ta
Ta13 1.0000000000 0.0000000000 0.7568843257 0.2500000000  Biso 1.0 Ta
Ta14 1.0000000000 0.2431156743 0.2431156743 0.2500000000  Biso 1.0 Ta
Ta15 1.0000000000 0.7568884919 0.0000000000 0.2500000000  Biso 1.0 Ta
Ta16 1.0000000000 0.0000000000 0.2431156743 0.7500000000  Biso 1.0 Ta
Ta17 1.0000000000 0.7568843257 0.7568843257 0.7500000000  Biso 1.0 Ta
Ta18 1.0000000000 0.2431115081 0.0000000000 0.7500000000  Biso 1.0 Ta
