# AFLOW.org Repositories
# B1Ir1Mg1 #180 - (B1Ir1Mg1_ICSD_409979) -
data_B1Ir1Mg1
_pd_phase_name B1Ir1Mg1
_cell_length_a  5.2738122610
_cell_length_b  5.2738122610
_cell_length_c  9.4407019017
_cell_angle_alpha  90.0000000000
_cell_angle_beta  90.0000000000
_cell_angle_gamma  120.0000000000
_symmetry_space_group_name_H-M  'P1'
_symmetry_Int_Tables_Number  1
loop_
_symmetry_equiv_pos_site_id
_symmetry_equiv_pos_as_xyz
  1  x,y,z
loop_
 _atom_site_label
 _atom_site_occupancy
 _atom_site_fract_x
 _atom_site_fract_y
 _atom_site_fract_z
 _atom_site_thermal_displace_type
 _atom_site_B_iso_or_equiv
 _atom_site_type_symbol
B1 1.0000000000 0.2044648343 0.6022607673 0.5000003406  Biso 1.0 B
B2 1.0000000000 0.3977392327 0.6022040670 0.1666670073  Biso 1.0 B
B3 1.0000000000 0.3977959330 0.7955351657 0.8333336739  Biso 1.0 B
B4 1.0000000000 0.7955351657 0.3977392327 0.5000003406  Biso 1.0 B
B5 1.0000000000 0.6022607673 0.3977959330 0.1666670073  Biso 1.0 B
B6 1.0000000000 0.6022040670 0.2044648343 0.8333336739  Biso 1.0 B
Ir7 1.0000000000 0.0000000000 0.5000000000 0.2885531245  Biso 1.0 Ir
Ir8 1.0000000000 0.5000000000 0.5000000000 0.9552197912  Biso 1.0 Ir
Ir9 1.0000000000 0.5000000000 0.0000000000 0.6218864578  Biso 1.0 Ir
Ir10 1.0000000000 0.5000000000 0.5000000000 0.3781186973  Biso 1.0 Ir
Ir11 1.0000000000 0.0000000000 0.5000000000 0.7114520307  Biso 1.0 Ir
Ir12 1.0000000000 0.5000000000 0.0000000000 0.0447853640  Biso 1.0 Ir
Mg13 1.0000000000 0.0000000000 0.0000000000 0.4999993622  Biso 1.0 Mg
Mg14 1.0000000000 0.0000000000 0.0000000000 0.1666660288  Biso 1.0 Mg
Mg15 1.0000000000 0.0000000000 0.0000000000 0.8333326955  Biso 1.0 Mg
Mg16 1.0000000000 0.0000000000 0.5000000000 0.0000000000  Biso 1.0 Mg
Mg17 1.0000000000 0.5000000000 0.5000000000 0.6666614681  Biso 1.0 Mg
Mg18 1.0000000000 0.5000000000 0.0000000000 0.3333281348  Biso 1.0 Mg
