# AFLOW.org Repositories
# B1Li2Pd3 #212 - (B1Li2Pd3_ICSD_156465) -
data_B1Li2Pd3
_pd_phase_name B1Li2Pd3
_cell_length_a  6.8153428475
_cell_length_b  6.8153428475
_cell_length_c  6.8153428475
_cell_angle_alpha  90.0000000000
_cell_angle_beta  90.0000000000
_cell_angle_gamma  90.0000000000
_symmetry_space_group_name_H-M  'P1'
_symmetry_Int_Tables_Number  1
loop_
_symmetry_equiv_pos_site_id
_symmetry_equiv_pos_as_xyz
  1  x,y,z
loop_
 _atom_site_label
 _atom_site_occupancy
 _atom_site_fract_x
 _atom_site_fract_y
 _atom_site_fract_z
 _atom_site_thermal_displace_type
 _atom_site_B_iso_or_equiv
 _atom_site_type_symbol
B1 1.0000000000 0.3750000000 0.3750000000 0.6250000000  Biso 1.0 B
B2 1.0000000000 0.1250000000 0.6250000000 0.1250000000  Biso 1.0 B
B3 1.0000000000 0.6250000000 0.8750000000 0.8750000000  Biso 1.0 B
B4 1.0000000000 0.8750000000 0.1250000000 0.3750000000  Biso 1.0 B
Li5 1.0000000000 0.6950315313 0.6950315313 0.3049684687  Biso 1.0 Li
Li6 1.0000000000 0.8049684687 0.3049684687 0.8049684687  Biso 1.0 Li
Li7 1.0000000000 0.3049684687 0.1950315313 0.1950315313  Biso 1.0 Li
Li8 1.0000000000 0.1950315313 0.8049684687 0.6950315313  Biso 1.0 Li
Li9 1.0000000000 0.4450315313 0.9450315313 0.4450315313  Biso 1.0 Li
Li10 1.0000000000 0.0549684687 0.0549684687 0.9450315313  Biso 1.0 Li
Li11 1.0000000000 0.9450315313 0.5549684687 0.5549684687  Biso 1.0 Li
Li12 1.0000000000 0.5549684687 0.4450315313 0.0549684687  Biso 1.0 Li
Pd13 1.0000000000 0.8750000000 0.6957466359 0.9457466359  Biso 1.0 Pd
Pd14 1.0000000000 0.6250000000 0.3042533641 0.4457466359  Biso 1.0 Pd
Pd15 1.0000000000 0.1250000000 0.1957466359 0.5542533641  Biso 1.0 Pd
Pd16 1.0000000000 0.3750000000 0.8042533641 0.0542533641  Biso 1.0 Pd
Pd17 1.0000000000 0.0542533641 0.8750000000 0.3042533641  Biso 1.0 Pd
Pd18 1.0000000000 0.5542533641 0.6250000000 0.6957466359  Biso 1.0 Pd
Pd19 1.0000000000 0.4457466359 0.1250000000 0.8042533641  Biso 1.0 Pd
Pd20 1.0000000000 0.9457466359 0.3750000000 0.1957466359  Biso 1.0 Pd
Pd21 1.0000000000 0.6957466359 0.0542533641 0.1250000000  Biso 1.0 Pd
Pd22 1.0000000000 0.3042533641 0.5542533641 0.3750000000  Biso 1.0 Pd
Pd23 1.0000000000 0.1957466359 0.4457466359 0.8750000000  Biso 1.0 Pd
Pd24 1.0000000000 0.8042533641 0.9457466359 0.6250000000  Biso 1.0 Pd
