# AFLOW.org Repositories
# B1P1 #186 - (B1P1_ICSD_615155) - B1P1 [B
data_B1P1
_pd_phase_name B1P1
_cell_length_a  3.1982595234
_cell_length_b  3.1982595234
_cell_length_c  5.3030778250
_cell_angle_alpha  90.0000000000
_cell_angle_beta  90.0000000000
_cell_angle_gamma  120.0000000000
_symmetry_space_group_name_H-M  'P1'
_symmetry_Int_Tables_Number  1
loop_
_symmetry_equiv_pos_site_id
_symmetry_equiv_pos_as_xyz
  1  x,y,z
loop_
 _atom_site_label
 _atom_site_occupancy
 _atom_site_fract_x
 _atom_site_fract_y
 _atom_site_fract_z
 _atom_site_thermal_displace_type
 _atom_site_B_iso_or_equiv
 _atom_site_type_symbol
B1 1.0000000000 0.3333326721 0.6666673279 0.0000000000  Biso 1.0 B
B2 1.0000000000 0.6666673279 0.3333326721 0.5003738899  Biso 1.0 B
P3 1.0000000000 0.3333345234 0.6666654766 0.3746261101  Biso 1.0 P
P4 1.0000000000 0.6666654766 0.3333345234 0.8746261101  Biso 1.0 P
