# AFLOW.org Repositories
# B2Fe1 #62 - (B2Fe1_ICSD_425310) - B2Fe1 
data_B2Fe1
_pd_phase_name B2Fe1
_cell_length_a  3.7135404177
_cell_length_b  4.7862585236
_cell_length_c  4.7854759362
_cell_angle_alpha  90.0000000000
_cell_angle_beta  90.0000000000
_cell_angle_gamma  90.0000000000
_symmetry_space_group_name_H-M  'P1'
_symmetry_Int_Tables_Number  1
loop_
_symmetry_equiv_pos_site_id
_symmetry_equiv_pos_as_xyz
  1  x,y,z
loop_
 _atom_site_label
 _atom_site_occupancy
 _atom_site_fract_x
 _atom_site_fract_y
 _atom_site_fract_z
 _atom_site_thermal_displace_type
 _atom_site_B_iso_or_equiv
 _atom_site_type_symbol
B1 1.0000000000 0.8930040382 0.4313807263 0.6601723937  Biso 1.0 B
B2 1.0000000000 0.3930040382 0.5686192737 0.8398276063  Biso 1.0 B
B3 1.0000000000 0.1069959618 0.9313807263 0.3398276063  Biso 1.0 B
B4 1.0000000000 0.6069959618 0.0686192737 0.1601723937  Biso 1.0 B
B5 1.0000000000 0.1069959618 0.5686192737 0.3398276063  Biso 1.0 B
B6 1.0000000000 0.6069959618 0.4313807263 0.1601723937  Biso 1.0 B
B7 1.0000000000 0.8930040382 0.0686192737 0.6601723937  Biso 1.0 B
B8 1.0000000000 0.3930040382 0.9313807263 0.8398276063  Biso 1.0 B
Fe9 1.0000000000 0.6243898593 0.7500000000 0.4798976329  Biso 1.0 Fe
Fe10 1.0000000000 0.1243898593 0.2500000000 0.0201023671  Biso 1.0 Fe
Fe11 1.0000000000 0.3756101407 0.2500000000 0.5201023671  Biso 1.0 Fe
Fe12 1.0000000000 0.8756101407 0.7500000000 0.9798976329  Biso 1.0 Fe
