# AFLOW.org Repositories
# B2Mo2Nb1 #127 - (B2Mo2Nb1_ICSD_614821) -
data_B2Mo2Nb1
_pd_phase_name B2Mo2Nb1
_cell_length_a  6.1446969643
_cell_length_b  6.1446969643
_cell_length_c  3.2064173434
_cell_angle_alpha  90.0000000000
_cell_angle_beta  90.0000000000
_cell_angle_gamma  90.0000000000
_symmetry_space_group_name_H-M  'P1'
_symmetry_Int_Tables_Number  1
loop_
_symmetry_equiv_pos_site_id
_symmetry_equiv_pos_as_xyz
  1  x,y,z
loop_
 _atom_site_label
 _atom_site_occupancy
 _atom_site_fract_x
 _atom_site_fract_y
 _atom_site_fract_z
 _atom_site_thermal_displace_type
 _atom_site_B_iso_or_equiv
 _atom_site_type_symbol
B1 1.0000000000 0.6089264672 0.1089264672 0.0000000000  Biso 1.0 B
B2 1.0000000000 0.3910735328 0.8910735328 0.0000000000  Biso 1.0 B
B3 1.0000000000 0.8910735328 0.6089264672 0.0000000000  Biso 1.0 B
B4 1.0000000000 0.1089264672 0.3910735328 0.0000000000  Biso 1.0 B
Mo5 1.0000000000 0.1750120179 0.6750120179 0.5000000000  Biso 1.0 Mo
Mo6 1.0000000000 0.8249879821 0.3249879821 0.5000000000  Biso 1.0 Mo
Mo7 1.0000000000 0.3249879821 0.1750120179 0.5000000000  Biso 1.0 Mo
Mo8 1.0000000000 0.6750120179 0.8249879821 0.5000000000  Biso 1.0 Mo
Nb9 1.0000000000 0.0000000000 0.0000000000 0.0000000000  Biso 1.0 Nb
Nb10 1.0000000000 0.5000000000 0.5000000000 0.0000000000  Biso 1.0 Nb
