# AFLOW.org Repositories
# B2Mo3 #127 - (B2Mo3_ICSD_614800) - B2Mo3
data_B2Mo3
_pd_phase_name B2Mo3
_cell_length_a  6.0612769137
_cell_length_b  6.0612769137
_cell_length_c  3.1794453595
_cell_angle_alpha  90.0000000000
_cell_angle_beta  90.0000000000
_cell_angle_gamma  90.0000000000
_symmetry_space_group_name_H-M  'P1'
_symmetry_Int_Tables_Number  1
loop_
_symmetry_equiv_pos_site_id
_symmetry_equiv_pos_as_xyz
  1  x,y,z
loop_
 _atom_site_label
 _atom_site_occupancy
 _atom_site_fract_x
 _atom_site_fract_y
 _atom_site_fract_z
 _atom_site_thermal_displace_type
 _atom_site_B_iso_or_equiv
 _atom_site_type_symbol
B1 1.0000000000 0.6112240570 0.1112240570 0.0000000000  Biso 1.0 B
B2 1.0000000000 0.3887759430 0.8887759430 0.0000000000  Biso 1.0 B
B3 1.0000000000 0.8887759430 0.6112240570 0.0000000000  Biso 1.0 B
B4 1.0000000000 0.1112240570 0.3887759430 0.0000000000  Biso 1.0 B
Mo5 1.0000000000 0.0000000000 0.0000000000 0.0000000000  Biso 1.0 Mo
Mo6 1.0000000000 0.5000000000 0.5000000000 0.0000000000  Biso 1.0 Mo
Mo7 1.0000000000 0.1731443695 0.6731443695 0.5000000000  Biso 1.0 Mo
Mo8 1.0000000000 0.8268556305 0.3268556305 0.5000000000  Biso 1.0 Mo
Mo9 1.0000000000 0.3268556305 0.1731443695 0.5000000000  Biso 1.0 Mo
Mo10 1.0000000000 0.6731443695 0.8268556305 0.5000000000  Biso 1.0 Mo
