# AFLOW.org Repositories
# B9Li1 #185 - (B9Li1_ICSD_164625) - B9Li1
data_B9Li1
_pd_phase_name B9Li1
_cell_length_a  5.7405045075
_cell_length_b  5.7405045075
_cell_length_c  5.0189497305
_cell_angle_alpha  90.0000000000
_cell_angle_beta  90.0000000000
_cell_angle_gamma  120.0000000000
_symmetry_space_group_name_H-M  'P1'
_symmetry_Int_Tables_Number  1
loop_
_symmetry_equiv_pos_site_id
_symmetry_equiv_pos_as_xyz
  1  x,y,z
loop_
 _atom_site_label
 _atom_site_occupancy
 _atom_site_fract_x
 _atom_site_fract_y
 _atom_site_fract_z
 _atom_site_thermal_displace_type
 _atom_site_B_iso_or_equiv
 _atom_site_type_symbol
B1 1.0000000000 0.0000000000 0.3720332731 0.1863203287  Biso 1.0 B
B2 1.0000000000 0.6279667269 0.6279667269 0.1863203287  Biso 1.0 B
B3 1.0000000000 0.3720332731 0.0000000000 0.1863203287  Biso 1.0 B
B4 1.0000000000 0.0000000000 0.6279667269 0.6863203287  Biso 1.0 B
B5 1.0000000000 0.3720332731 0.3720332731 0.6863203287  Biso 1.0 B
B6 1.0000000000 0.6279667269 0.0000000000 0.6863203287  Biso 1.0 B
B7 1.0000000000 0.1688197373 0.6955768755 0.0258735811  Biso 1.0 B
B8 1.0000000000 0.3044231245 0.4732428618 0.0258735811  Biso 1.0 B
B9 1.0000000000 0.5267571382 0.8311802627 0.0258735811  Biso 1.0 B
B10 1.0000000000 0.8311802627 0.3044231245 0.5258735811  Biso 1.0 B
B11 1.0000000000 0.6955768755 0.5267571382 0.5258735811  Biso 1.0 B
B12 1.0000000000 0.4732428618 0.1688197373 0.5258735811  Biso 1.0 B
B13 1.0000000000 0.5267571382 0.6955768755 0.5258735811  Biso 1.0 B
B14 1.0000000000 0.1688197373 0.4732428618 0.5258735811  Biso 1.0 B
B15 1.0000000000 0.3044231245 0.8311802627 0.5258735811  Biso 1.0 B
B16 1.0000000000 0.4732428618 0.3044231245 0.0258735811  Biso 1.0 B
B17 1.0000000000 0.8311802627 0.5267571382 0.0258735811  Biso 1.0 B
B18 1.0000000000 0.6955768755 0.1688197373 0.0258735811  Biso 1.0 B
Li19 1.0000000000 0.0000000000 0.0000000000 0.9287975272  Biso 1.0 Li
Li20 1.0000000000 0.0000000000 0.0000000000 0.4287975272  Biso 1.0 Li
