# AFLOW.org Repositories
# Ba1Ge3Pt1 #107 - (Ba1Ge3Pt1_ICSD_174262)
data_Ba1Ge3Pt1
_pd_phase_name Ba1Ge3Pt1
_cell_length_a  6.1229300336
_cell_length_b  6.1229300336
_cell_length_c  6.1229300336
_cell_angle_alpha  135.6647629343
_cell_angle_beta  135.6647629343
_cell_angle_gamma  64.4990449309
_symmetry_space_group_name_H-M  'P1'
_symmetry_Int_Tables_Number  1
loop_
_symmetry_equiv_pos_site_id
_symmetry_equiv_pos_as_xyz
  1  x,y,z
loop_
 _atom_site_label
 _atom_site_occupancy
 _atom_site_fract_x
 _atom_site_fract_y
 _atom_site_fract_z
 _atom_site_thermal_displace_type
 _atom_site_B_iso_or_equiv
 _atom_site_type_symbol
Ba1 1.0000000000 0.3999688532 0.3999688532 0.0000000000  Biso 1.0 Ba
Ge2 1.0000000000 0.6471727695 0.1471727695 0.5000000000  Biso 1.0 Ge
Ge3 1.0000000000 0.1471727695 0.6471727695 0.5000000000  Biso 1.0 Ge
Ge4 1.0000000000 0.0000000000 0.0000000000 0.0000000000  Biso 1.0 Ge
Pt5 1.0000000000 0.7518915980 0.7518915980 0.0000000000  Biso 1.0 Pt
