# AFLOW.org Repositories
# Ba1In4Ir1 #51 - (Ba1In4Ir1_ICSD_173616) 
data_Ba1In4Ir1
_pd_phase_name Ba1In4Ir1
_cell_length_a  4.4046840541
_cell_length_b  8.0381726571
_cell_length_c  8.7382011811
_cell_angle_alpha  90.0000000000
_cell_angle_beta  90.0000000000
_cell_angle_gamma  90.0000000000
_symmetry_space_group_name_H-M  'P1'
_symmetry_Int_Tables_Number  1
loop_
_symmetry_equiv_pos_site_id
_symmetry_equiv_pos_as_xyz
  1  x,y,z
loop_
 _atom_site_label
 _atom_site_occupancy
 _atom_site_fract_x
 _atom_site_fract_y
 _atom_site_fract_z
 _atom_site_thermal_displace_type
 _atom_site_B_iso_or_equiv
 _atom_site_type_symbol
Ba1 1.0000000000 0.0000000000 0.3954840866 0.2500000000  Biso 1.0 Ba
Ba2 1.0000000000 0.0000000000 0.6045159134 0.7500000000  Biso 1.0 Ba
In3 1.0000000000 0.5000000000 0.7044534928 0.0684191649  Biso 1.0 In
In4 1.0000000000 0.5000000000 0.7044534928 0.4315808351  Biso 1.0 In
In5 1.0000000000 0.5000000000 0.2955465072 0.9315808351  Biso 1.0 In
In6 1.0000000000 0.5000000000 0.2955465072 0.5684191649  Biso 1.0 In
In7 1.0000000000 0.5000000000 0.0559584517 0.2500000000  Biso 1.0 In
In8 1.0000000000 0.5000000000 0.9440415483 0.7500000000  Biso 1.0 In
In9 1.0000000000 0.0000000000 0.0000000000 0.0000000000  Biso 1.0 In
In10 1.0000000000 0.0000000000 0.0000000000 0.5000000000  Biso 1.0 In
Ir11 1.0000000000 0.0000000000 0.8186356334 0.2500000000  Biso 1.0 Ir
Ir12 1.0000000000 0.0000000000 0.1813643666 0.7500000000  Biso 1.0 Ir
