# AFLOW.org Repositories
# Ba1Mo3Te3 #176 - (Ba1Mo3Te3_ICSD_603674)
data_Ba1Mo3Te3
_pd_phase_name Ba1Mo3Te3
_cell_length_a  9.6786028845
_cell_length_b  9.6786028845
_cell_length_c  4.6446379424
_cell_angle_alpha  90.0000000000
_cell_angle_beta  90.0000000000
_cell_angle_gamma  120.0000000000
_symmetry_space_group_name_H-M  'P1'
_symmetry_Int_Tables_Number  1
loop_
_symmetry_equiv_pos_site_id
_symmetry_equiv_pos_as_xyz
  1  x,y,z
loop_
 _atom_site_label
 _atom_site_occupancy
 _atom_site_fract_x
 _atom_site_fract_y
 _atom_site_fract_z
 _atom_site_thermal_displace_type
 _atom_site_B_iso_or_equiv
 _atom_site_type_symbol
Ba1 1.0000000000 0.6666554462 0.3333293813 0.2500000000  Biso 1.0 Ba
Ba2 1.0000000000 0.3333445538 0.6666706187 0.7500000000  Biso 1.0 Ba
Mo3 1.0000000000 0.1723669496 0.0318761843 0.2500000000  Biso 1.0 Mo
Mo4 1.0000000000 0.9681227698 0.1404855723 0.2500000000  Biso 1.0 Mo
Mo5 1.0000000000 0.8595080542 0.8276323682 0.2500000000  Biso 1.0 Mo
Mo6 1.0000000000 0.8276330504 0.9681238157 0.7500000000  Biso 1.0 Mo
Mo7 1.0000000000 0.0318772302 0.8595144277 0.7500000000  Biso 1.0 Mo
Mo8 1.0000000000 0.1404919458 0.1723676318 0.7500000000  Biso 1.0 Mo
Te9 1.0000000000 0.3081867817 0.3737666314 0.2500000000  Biso 1.0 Te
Te10 1.0000000000 0.6262324512 0.9344186821 0.2500000000  Biso 1.0 Te
Te11 1.0000000000 0.0655832411 0.6918210405 0.2500000000  Biso 1.0 Te
Te12 1.0000000000 0.6918132183 0.6262333686 0.7500000000  Biso 1.0 Te
Te13 1.0000000000 0.3737675488 0.0655813179 0.7500000000  Biso 1.0 Te
Te14 1.0000000000 0.9344167589 0.3081789595 0.7500000000  Biso 1.0 Te
