# AFLOW.org Repositories
# Ba1Os2P2 #139 - (Ba1Os2P2_ICSD_602106) -
data_Ba1Os2P2
_pd_phase_name Ba1Os2P2
_cell_length_a  6.7532570941
_cell_length_b  6.7532570941
_cell_length_c  6.7532570941
_cell_angle_alpha  144.7891300295
_cell_angle_beta  144.7891300295
_cell_angle_gamma  50.6488800519
_symmetry_space_group_name_H-M  'P1'
_symmetry_Int_Tables_Number  1
loop_
_symmetry_equiv_pos_site_id
_symmetry_equiv_pos_as_xyz
  1  x,y,z
loop_
 _atom_site_label
 _atom_site_occupancy
 _atom_site_fract_x
 _atom_site_fract_y
 _atom_site_fract_z
 _atom_site_thermal_displace_type
 _atom_site_B_iso_or_equiv
 _atom_site_type_symbol
Ba1 1.0000000000 0.0000000000 0.0000000000 0.0000000000  Biso 1.0 Ba
Os2 1.0000000000 0.7500000000 0.2500000000 0.5000000000  Biso 1.0 Os
Os3 1.0000000000 0.2500000000 0.7500000000 0.5000000000  Biso 1.0 Os
P4 1.0000000000 0.3435119950 0.3435119950 0.0000000000  Biso 1.0 P
P5 1.0000000000 0.6564880050 0.6564880050 0.0000000000  Biso 1.0 P
