# AFLOW.org Repositories
# Ba1Si2Zn2 #139 - (Ba1Si2Zn2_ICSD_174269)
data_Ba1Si2Zn2
_pd_phase_name Ba1Si2Zn2
_cell_length_a  6.0073475925
_cell_length_b  6.0073475925
_cell_length_c  6.0073475925
_cell_angle_alpha  135.9536522356
_cell_angle_beta  135.9536522356
_cell_angle_gamma  64.0519977235
_symmetry_space_group_name_H-M  'P1'
_symmetry_Int_Tables_Number  1
loop_
_symmetry_equiv_pos_site_id
_symmetry_equiv_pos_as_xyz
  1  x,y,z
loop_
 _atom_site_label
 _atom_site_occupancy
 _atom_site_fract_x
 _atom_site_fract_y
 _atom_site_fract_z
 _atom_site_thermal_displace_type
 _atom_site_B_iso_or_equiv
 _atom_site_type_symbol
Ba1 1.0000000000 0.0000000000 0.0000000000 0.0000000000  Biso 1.0 Ba
Si2 1.0000000000 0.6203614845 0.6203614845 0.0000000000  Biso 1.0 Si
Si3 1.0000000000 0.3796385155 0.3796385155 0.0000000000  Biso 1.0 Si
Zn4 1.0000000000 0.7500000000 0.2500000000 0.5000000000  Biso 1.0 Zn
Zn5 1.0000000000 0.2500000000 0.7500000000 0.5000000000  Biso 1.0 Zn
