# AFLOW.org Repositories
# Be2Ta3 #127 - (Be2Ta3_ICSD_616431) - Be2
data_Be2Ta3
_pd_phase_name Be2Ta3
_cell_length_a  6.5660309536
_cell_length_b  6.5660309536
_cell_length_c  3.3805344781
_cell_angle_alpha  90.0000000000
_cell_angle_beta  90.0000000000
_cell_angle_gamma  90.0000000000
_symmetry_space_group_name_H-M  'P1'
_symmetry_Int_Tables_Number  1
loop_
_symmetry_equiv_pos_site_id
_symmetry_equiv_pos_as_xyz
  1  x,y,z
loop_
 _atom_site_label
 _atom_site_occupancy
 _atom_site_fract_x
 _atom_site_fract_y
 _atom_site_fract_z
 _atom_site_thermal_displace_type
 _atom_site_B_iso_or_equiv
 _atom_site_type_symbol
Be1 1.0000000000 0.6142150960 0.1142150960 0.0000000000  Biso 1.0 Be
Be2 1.0000000000 0.3857849040 0.8857849040 0.0000000000  Biso 1.0 Be
Be3 1.0000000000 0.8857849040 0.6142150960 0.0000000000  Biso 1.0 Be
Be4 1.0000000000 0.1142150960 0.3857849040 0.0000000000  Biso 1.0 Be
Ta5 1.0000000000 0.0000000000 0.0000000000 0.0000000000  Biso 1.0 Ta
Ta6 1.0000000000 0.5000000000 0.5000000000 0.0000000000  Biso 1.0 Ta
Ta7 1.0000000000 0.1783809481 0.6783809481 0.5000000000  Biso 1.0 Ta
Ta8 1.0000000000 0.8216190519 0.3216190519 0.5000000000  Biso 1.0 Ta
Ta9 1.0000000000 0.3216190519 0.1783809481 0.5000000000  Biso 1.0 Ta
Ta10 1.0000000000 0.6783809481 0.8216190519 0.5000000000  Biso 1.0 Ta
