# AFLOW.org Repositories
# Bi2Ho6Rh1 #189 - (Bi2Ho6Rh1_ICSD_180044)
data_Bi2Ho6Rh1
_pd_phase_name Bi2Ho6Rh1
_cell_length_a  8.3981085969
_cell_length_b  8.3981085969
_cell_length_c  4.0809841983
_cell_angle_alpha  90.0000000000
_cell_angle_beta  90.0000000000
_cell_angle_gamma  120.0000000000
_symmetry_space_group_name_H-M  'P1'
_symmetry_Int_Tables_Number  1
loop_
_symmetry_equiv_pos_site_id
_symmetry_equiv_pos_as_xyz
  1  x,y,z
loop_
 _atom_site_label
 _atom_site_occupancy
 _atom_site_fract_x
 _atom_site_fract_y
 _atom_site_fract_z
 _atom_site_thermal_displace_type
 _atom_site_B_iso_or_equiv
 _atom_site_type_symbol
Bi1 1.0000000000 0.6666721582 0.3333473468 0.0000000000  Biso 1.0 Bi
Bi2 1.0000000000 0.3333248114 0.6666526532 0.0000000000  Biso 1.0 Bi
Ho3 1.0000000000 0.0000000000 0.7636279253 0.0000000000  Biso 1.0 Ho
Ho4 1.0000000000 0.2363720747 0.2363720747 0.0000000000  Biso 1.0 Ho
Ho5 1.0000000000 0.7636234455 0.0000000000 0.0000000000  Biso 1.0 Ho
Ho6 1.0000000000 0.0000000000 0.3954467422 0.5000000000  Biso 1.0 Ho
Ho7 1.0000000000 0.6045532578 0.6045532578 0.5000000000  Biso 1.0 Ho
Ho8 1.0000000000 0.3954558155 0.0000000000 0.5000000000  Biso 1.0 Ho
Rh9 1.0000000000 0.0000000000 0.0000000000 0.5000000000  Biso 1.0 Rh
