# AFLOW.org Repositories
# C1O2 #136 - (C1O2_ICSD_110775) - C1O2 [C
data_C1O2
_pd_phase_name C1O2
_cell_length_a  4.4994008360
_cell_length_b  4.4994008360
_cell_length_c  4.8913311593
_cell_angle_alpha  90.0000000000
_cell_angle_beta  90.0000000000
_cell_angle_gamma  90.0000000000
_symmetry_space_group_name_H-M  'P1'
_symmetry_Int_Tables_Number  1
loop_
_symmetry_equiv_pos_site_id
_symmetry_equiv_pos_as_xyz
  1  x,y,z
loop_
 _atom_site_label
 _atom_site_occupancy
 _atom_site_fract_x
 _atom_site_fract_y
 _atom_site_fract_z
 _atom_site_thermal_displace_type
 _atom_site_B_iso_or_equiv
 _atom_site_type_symbol
C1 1.0000000000 0.0000000000 0.0000000000 0.0000000000  Biso 1.0 C
C2 1.0000000000 0.5000000000 0.5000000000 0.5000000000  Biso 1.0 C
O3 1.0000000000 0.1845803993 0.1845803993 0.0000000000  Biso 1.0 O
O4 1.0000000000 0.8154196007 0.8154196007 0.0000000000  Biso 1.0 O
O5 1.0000000000 0.3154196007 0.6845803993 0.5000000000  Biso 1.0 O
O6 1.0000000000 0.6845803993 0.3154196007 0.5000000000  Biso 1.0 O
