# AFLOW.org Repositories
# C1Re2 #194 - (C1Re2_ICSD_180376) - C1Re2
data_C1Re2
_pd_phase_name C1Re2
_cell_length_a  2.8726095619
_cell_length_b  2.8726095619
_cell_length_c  9.9323391500
_cell_angle_alpha  90.0000000000
_cell_angle_beta  90.0000000000
_cell_angle_gamma  120.0000000000
_symmetry_space_group_name_H-M  'P1'
_symmetry_Int_Tables_Number  1
loop_
_symmetry_equiv_pos_site_id
_symmetry_equiv_pos_as_xyz
  1  x,y,z
loop_
 _atom_site_label
 _atom_site_occupancy
 _atom_site_fract_x
 _atom_site_fract_y
 _atom_site_fract_z
 _atom_site_thermal_displace_type
 _atom_site_B_iso_or_equiv
 _atom_site_type_symbol
C1 1.0000000000 0.3333312901 0.6666687099 0.2500000000  Biso 1.0 C
C2 1.0000000000 0.6666687099 0.3333312901 0.7500000000  Biso 1.0 C
Re3 1.0000000000 0.3333292148 0.6666707852 0.6084458039  Biso 1.0 Re
Re4 1.0000000000 0.6666707852 0.3333292148 0.1084458039  Biso 1.0 Re
Re5 1.0000000000 0.6666707852 0.3333292148 0.3915541961  Biso 1.0 Re
Re6 1.0000000000 0.3333292148 0.6666707852 0.8915541961  Biso 1.0 Re
