# AFLOW.org Repositories
# Ca1Ge2Li1 #62 - (Ca1Ge2Li1_ICSD_25328) -
data_Ca1Ge2Li1
_pd_phase_name Ca1Ge2Li1
_cell_length_a  3.9366344623
_cell_length_b  8.0167614455
_cell_length_c  10.7650148976
_cell_angle_alpha  90.0000000000
_cell_angle_beta  90.0000000000
_cell_angle_gamma  90.0000000000
_symmetry_space_group_name_H-M  'P1'
_symmetry_Int_Tables_Number  1
loop_
_symmetry_equiv_pos_site_id
_symmetry_equiv_pos_as_xyz
  1  x,y,z
loop_
 _atom_site_label
 _atom_site_occupancy
 _atom_site_fract_x
 _atom_site_fract_y
 _atom_site_fract_z
 _atom_site_thermal_displace_type
 _atom_site_B_iso_or_equiv
 _atom_site_type_symbol
Ca1 1.0000000000 0.2500000000 0.1345140934 0.8644192847  Biso 1.0 Ca
Ca2 1.0000000000 0.7500000000 0.3654859066 0.3644192847  Biso 1.0 Ca
Ca3 1.0000000000 0.7500000000 0.8654859066 0.1355807153  Biso 1.0 Ca
Ca4 1.0000000000 0.2500000000 0.6345140934 0.6355807153  Biso 1.0 Ca
Ge5 1.0000000000 0.2500000000 0.2257258900 0.5618418006  Biso 1.0 Ge
Ge6 1.0000000000 0.7500000000 0.2742741100 0.0618418006  Biso 1.0 Ge
Ge7 1.0000000000 0.7500000000 0.7742741100 0.4381581994  Biso 1.0 Ge
Ge8 1.0000000000 0.2500000000 0.7257258900 0.9381581994  Biso 1.0 Ge
Ge9 1.0000000000 0.2500000000 0.6600022564 0.3218766009  Biso 1.0 Ge
Ge10 1.0000000000 0.7500000000 0.8399977436 0.8218766009  Biso 1.0 Ge
Ge11 1.0000000000 0.7500000000 0.3399977436 0.6781233991  Biso 1.0 Ge
Ge12 1.0000000000 0.2500000000 0.1600022564 0.1781233991  Biso 1.0 Ge
Li13 1.0000000000 0.2500000000 0.9933813623 0.3868108375  Biso 1.0 Li
Li14 1.0000000000 0.7500000000 0.5066186377 0.8868108375  Biso 1.0 Li
Li15 1.0000000000 0.7500000000 0.0066186377 0.6131891625  Biso 1.0 Li
Li16 1.0000000000 0.2500000000 0.4933813623 0.1131891625  Biso 1.0 Li
