# AFLOW.org Repositories
# Ca1Pd2Si2 #139 - (Ca1Pd2Si2_ICSD_619506)
data_Ca1Pd2Si2
_pd_phase_name Ca1Pd2Si2
_cell_length_a  5.7191085935
_cell_length_b  5.7191085935
_cell_length_c  5.7191085935
_cell_angle_alpha  136.3410734706
_cell_angle_beta  136.3410734706
_cell_angle_gamma  63.4534688084
_symmetry_space_group_name_H-M  'P1'
_symmetry_Int_Tables_Number  1
loop_
_symmetry_equiv_pos_site_id
_symmetry_equiv_pos_as_xyz
  1  x,y,z
loop_
 _atom_site_label
 _atom_site_occupancy
 _atom_site_fract_x
 _atom_site_fract_y
 _atom_site_fract_z
 _atom_site_thermal_displace_type
 _atom_site_B_iso_or_equiv
 _atom_site_type_symbol
Ca1 1.0000000000 0.0000000000 0.0000000000 0.0000000000  Biso 1.0 Ca
Pd2 1.0000000000 0.7500000000 0.2500000000 0.5000000000  Biso 1.0 Pd
Pd3 1.0000000000 0.2500000000 0.7500000000 0.5000000000  Biso 1.0 Pd
Si4 1.0000000000 0.6221881514 0.6221881514 0.0000000000  Biso 1.0 Si
Si5 1.0000000000 0.3778118486 0.3778118486 0.0000000000  Biso 1.0 Si
