# AFLOW.org Repositories
# Ca1Pt1Si3 #107 - (Ca1Pt1Si3_ICSD_180963)
data_Ca1Pt1Si3
_pd_phase_name Ca1Pt1Si3
_cell_length_a  5.7699277805
_cell_length_b  5.7699277805
_cell_length_c  5.7699277805
_cell_angle_alpha  136.9167733068
_cell_angle_beta  136.9167733068
_cell_angle_gamma  62.5661289371
_symmetry_space_group_name_H-M  'P1'
_symmetry_Int_Tables_Number  1
loop_
_symmetry_equiv_pos_site_id
_symmetry_equiv_pos_as_xyz
  1  x,y,z
loop_
 _atom_site_label
 _atom_site_occupancy
 _atom_site_fract_x
 _atom_site_fract_y
 _atom_site_fract_z
 _atom_site_thermal_displace_type
 _atom_site_B_iso_or_equiv
 _atom_site_type_symbol
Ca1 1.0000000000 0.0010172046 0.0010172046 0.0000000000  Biso 1.0 Ca
Pt2 1.0000000000 0.6443630286 0.6443630286 0.0000000000  Biso 1.0 Pt
Si3 1.0000000000 0.4023183295 0.4023183295 0.0000000000  Biso 1.0 Si
Si4 1.0000000000 0.2617507186 0.7617507186 0.5000000000  Biso 1.0 Si
Si5 1.0000000000 0.7617507186 0.2617507186 0.5000000000  Biso 1.0 Si
