# AFLOW.org Repositories
# Ca1Si3 #139 - (Ca1Si3_ICSD_263004) - Ca1
data_Ca1Si3
_pd_phase_name Ca1Si3
_cell_length_a  7.6462393447
_cell_length_b  7.6462393447
_cell_length_c  7.6462393447
_cell_angle_alpha  123.5217448862
_cell_angle_beta  123.5217448862
_cell_angle_gamma  84.0012455392
_symmetry_space_group_name_H-M  'P1'
_symmetry_Int_Tables_Number  1
loop_
_symmetry_equiv_pos_site_id
_symmetry_equiv_pos_as_xyz
  1  x,y,z
loop_
 _atom_site_label
 _atom_site_occupancy
 _atom_site_fract_x
 _atom_site_fract_y
 _atom_site_fract_z
 _atom_site_thermal_displace_type
 _atom_site_B_iso_or_equiv
 _atom_site_type_symbol
Ca1 1.0000000000 0.8259511461 0.8259511461 0.0000000000  Biso 1.0 Ca
Ca2 1.0000000000 0.1740488539 0.1740488539 0.0000000000  Biso 1.0 Ca
Ca3 1.0000000000 0.2500000000 0.7500000000 0.5000000000  Biso 1.0 Ca
Ca4 1.0000000000 0.7500000000 0.2500000000 0.5000000000  Biso 1.0 Ca
Si5 1.0000000000 0.3343852708 0.0000000000 0.3343852708  Biso 1.0 Si
Si6 1.0000000000 0.6656147292 0.0000000000 0.6656147292  Biso 1.0 Si
Si7 1.0000000000 0.0000000000 0.3343852708 0.3343852708  Biso 1.0 Si
Si8 1.0000000000 0.0000000000 0.6656147292 0.6656147292  Biso 1.0 Si
Si9 1.0000000000 0.2090259016 0.2090259016 0.6291415823  Biso 1.0 Si
Si10 1.0000000000 0.5798843193 0.5798843193 0.3708584177  Biso 1.0 Si
Si11 1.0000000000 0.5798843193 0.2090259016 0.0000000000  Biso 1.0 Si
Si12 1.0000000000 0.2090259016 0.5798843193 0.0000000000  Biso 1.0 Si
Si13 1.0000000000 0.7909740984 0.4201156807 0.0000000000  Biso 1.0 Si
Si14 1.0000000000 0.4201156807 0.7909740984 0.0000000000  Biso 1.0 Si
Si15 1.0000000000 0.4201156807 0.4201156807 0.6291415823  Biso 1.0 Si
Si16 1.0000000000 0.7909740984 0.7909740984 0.3708584177  Biso 1.0 Si
