# AFLOW.org Repositories
# Cd1Cu1Dy1 #189 - (Cd1Cu1Dy1_ICSD_656598)
data_Cd1Cu1Dy1
_pd_phase_name Cd1Cu1Dy1
_cell_length_a  7.4543669922
_cell_length_b  7.4543669922
_cell_length_c  3.9532929274
_cell_angle_alpha  90.0000000000
_cell_angle_beta  90.0000000000
_cell_angle_gamma  120.0000000000
_symmetry_space_group_name_H-M  'P1'
_symmetry_Int_Tables_Number  1
loop_
_symmetry_equiv_pos_site_id
_symmetry_equiv_pos_as_xyz
  1  x,y,z
loop_
 _atom_site_label
 _atom_site_occupancy
 _atom_site_fract_x
 _atom_site_fract_y
 _atom_site_fract_z
 _atom_site_thermal_displace_type
 _atom_site_B_iso_or_equiv
 _atom_site_type_symbol
Cd1 1.0000000000 0.0000000000 0.7497298294 0.0000000000  Biso 1.0 Cd
Cd2 1.0000000000 0.2502701706 0.2502701706 0.0000000000  Biso 1.0 Cd
Cd3 1.0000000000 0.7497337001 0.0000000000 0.0000000000  Biso 1.0 Cd
Cu4 1.0000000000 0.6666671396 0.3333337220 0.0000000000  Biso 1.0 Cu
Cu5 1.0000000000 0.3333334176 0.6666662780 0.0000000000  Biso 1.0 Cu
Cu6 1.0000000000 0.0000000000 0.0000000000 0.5000000000  Biso 1.0 Cu
Dy7 1.0000000000 0.0000000000 0.4125481748 0.5000000000  Biso 1.0 Dy
Dy8 1.0000000000 0.5874518252 0.5874518252 0.5000000000  Biso 1.0 Dy
Dy9 1.0000000000 0.4125531524 0.0000000000 0.5000000000  Biso 1.0 Dy
