# AFLOW.org Repositories
# Cd1Zr2 #139 - (Cd1Zr2_ICSD_620613) - Cd1
data_Cd1Zr2
_pd_phase_name Cd1Zr2
_cell_length_a  7.4137344891
_cell_length_b  7.4137344891
_cell_length_c  7.4137344891
_cell_angle_alpha  155.9815827306
_cell_angle_beta  155.9815827306
_cell_angle_gamma  34.2256014298
_symmetry_space_group_name_H-M  'P1'
_symmetry_Int_Tables_Number  1
loop_
_symmetry_equiv_pos_site_id
_symmetry_equiv_pos_as_xyz
  1  x,y,z
loop_
 _atom_site_label
 _atom_site_occupancy
 _atom_site_fract_x
 _atom_site_fract_y
 _atom_site_fract_z
 _atom_site_thermal_displace_type
 _atom_site_B_iso_or_equiv
 _atom_site_type_symbol
Cd1 1.0000000000 0.0000000000 0.0000000000 0.0000000000  Biso 1.0 Cd
Zr2 1.0000000000 0.3303155904 0.3303155904 0.0000000000  Biso 1.0 Zr
Zr3 1.0000000000 0.6696844096 0.6696844096 0.0000000000  Biso 1.0 Zr
