# AFLOW.org Repositories
# Ce2Ni12P7 #174 - (Ce2Ni12P7_ICSD_157629)
data_Ce2Ni12P7
_pd_phase_name Ce2Ni12P7
_cell_length_a  9.0059722093
_cell_length_b  9.0059722093
_cell_length_c  3.7006952135
_cell_angle_alpha  90.0000000000
_cell_angle_beta  90.0000000000
_cell_angle_gamma  120.0000000000
_symmetry_space_group_name_H-M  'P1'
_symmetry_Int_Tables_Number  1
loop_
_symmetry_equiv_pos_site_id
_symmetry_equiv_pos_as_xyz
  1  x,y,z
loop_
 _atom_site_label
 _atom_site_occupancy
 _atom_site_fract_x
 _atom_site_fract_y
 _atom_site_fract_z
 _atom_site_thermal_displace_type
 _atom_site_B_iso_or_equiv
 _atom_site_type_symbol
Ce1 1.0000000000 0.3333184624 0.6666619011 0.0000000000  Biso 1.0 Ce
Ce2 1.0000000000 0.6666910475 0.3333438386 0.5000000000  Biso 1.0 Ce
Ni3 1.0000000000 0.4348876474 0.0586627640 0.0000000000  Biso 1.0 Ni
Ni4 1.0000000000 0.9413453636 0.3762399041 0.0000000000  Biso 1.0 Ni
Ni5 1.0000000000 0.6237602034 0.5650826457 0.0000000000  Biso 1.0 Ni
Ni6 1.0000000000 0.1475921454 0.2730382725 0.0000000000  Biso 1.0 Ni
Ni7 1.0000000000 0.7269719879 0.8745517889 0.0000000000  Biso 1.0 Ni
Ni8 1.0000000000 0.1254265705 0.8523957571 0.0000000000  Biso 1.0 Ni
Ni9 1.0000000000 0.3813797519 0.4297100435 0.5000000000  Biso 1.0 Ni
Ni10 1.0000000000 0.5702904884 0.9516691985 0.5000000000  Biso 1.0 Ni
Ni11 1.0000000000 0.0483273275 0.6186341841 0.5000000000  Biso 1.0 Ni
Ni12 1.0000000000 0.2156826056 0.0971143838 0.5000000000  Biso 1.0 Ni
Ni13 1.0000000000 0.9028656880 0.1185585660 0.5000000000  Biso 1.0 Ni
Ni14 1.0000000000 0.8814587484 0.7843306043 0.5000000000  Biso 1.0 Ni
P15 1.0000000000 0.4002317570 0.2920918253 0.0000000000  Biso 1.0 P
P16 1.0000000000 0.7078938207 0.1081296632 0.0000000000  Biso 1.0 P
P17 1.0000000000 0.8918698837 0.5997644865 0.0000000000  Biso 1.0 P
P18 1.0000000000 0.1047623027 0.3998870461 0.5000000000  Biso 1.0 P
P19 1.0000000000 0.6001052775 0.7048661881 0.5000000000  Biso 1.0 P
P20 1.0000000000 0.2951290079 0.8952473997 0.5000000000  Biso 1.0 P
P21 1.0000000000 0.0000000000 0.0000000000 0.0000000000  Biso 1.0 P
