# AFLOW.org Repositories
# Co1Ga1Hf1 #189 - (Co1Ga1Hf1_ICSD_623085)
data_Co1Ga1Hf1
_pd_phase_name Co1Ga1Hf1
_cell_length_a  6.8621628387
_cell_length_b  6.8621628387
_cell_length_c  3.3009311091
_cell_angle_alpha  90.0000000000
_cell_angle_beta  90.0000000000
_cell_angle_gamma  120.0000000000
_symmetry_space_group_name_H-M  'P1'
_symmetry_Int_Tables_Number  1
loop_
_symmetry_equiv_pos_site_id
_symmetry_equiv_pos_as_xyz
  1  x,y,z
loop_
 _atom_site_label
 _atom_site_occupancy
 _atom_site_fract_x
 _atom_site_fract_y
 _atom_site_fract_z
 _atom_site_thermal_displace_type
 _atom_site_B_iso_or_equiv
 _atom_site_type_symbol
Co1 1.0000000000 0.6666629442 0.3333295850 0.0000000000  Biso 1.0 Co
Co2 1.0000000000 0.3333333592 0.6666704150 0.0000000000  Biso 1.0 Co
Co3 1.0000000000 0.0000000000 0.0000000000 0.5000000000  Biso 1.0 Co
Ga4 1.0000000000 0.0000000000 0.7417145945 0.0000000000  Biso 1.0 Ga
Ga5 1.0000000000 0.2582854055 0.2582854055 0.0000000000  Biso 1.0 Ga
Ga6 1.0000000000 0.7417214244 0.0000000000 0.0000000000  Biso 1.0 Ga
Hf7 1.0000000000 0.0000000000 0.4035594224 0.5000000000  Biso 1.0 Hf
Hf8 1.0000000000 0.5964405776 0.5964405776 0.5000000000  Biso 1.0 Hf
Hf9 1.0000000000 0.4035578277 0.0000000000 0.5000000000  Biso 1.0 Hf
