# AFLOW.org Repositories
# Co1Hf1Sn1 #189 - (Co1Hf1Sn1_ICSD_623801)
data_Co1Hf1Sn1
_pd_phase_name Co1Hf1Sn1
_cell_length_a  7.2755948955
_cell_length_b  7.2755948955
_cell_length_c  3.8206125797
_cell_angle_alpha  90.0000000000
_cell_angle_beta  90.0000000000
_cell_angle_gamma  120.0000000000
_symmetry_space_group_name_H-M  'P1'
_symmetry_Int_Tables_Number  1
loop_
_symmetry_equiv_pos_site_id
_symmetry_equiv_pos_as_xyz
  1  x,y,z
loop_
 _atom_site_label
 _atom_site_occupancy
 _atom_site_fract_x
 _atom_site_fract_y
 _atom_site_fract_z
 _atom_site_thermal_displace_type
 _atom_site_B_iso_or_equiv
 _atom_site_type_symbol
Co1 1.0000000000 0.0000000000 0.7398710895 0.0000000000  Biso 1.0 Co
Co2 1.0000000000 0.2601289105 0.2601289105 0.0000000000  Biso 1.0 Co
Co3 1.0000000000 0.7398655947 0.0000000000 0.0000000000  Biso 1.0 Co
Hf4 1.0000000000 0.0000000000 0.4034736377 0.5000000000  Biso 1.0 Hf
Hf5 1.0000000000 0.5965263623 0.5965263623 0.5000000000  Biso 1.0 Hf
Hf6 1.0000000000 0.4034778995 0.0000000000 0.5000000000  Biso 1.0 Hf
Sn7 1.0000000000 0.6666684744 0.3333347449 0.0000000000  Biso 1.0 Sn
Sn8 1.0000000000 0.3333337295 0.6666652551 0.0000000000  Biso 1.0 Sn
Sn9 1.0000000000 0.0000000000 0.0000000000 0.5000000000  Biso 1.0 Sn
