# AFLOW.org Repositories
# Cs1Gd1S2 #194 - (Cs1Gd1S2_ICSD_602861) -
data_Cs1Gd1S2
_pd_phase_name Cs1Gd1S2
_cell_length_a  4.1612455724
_cell_length_b  4.1612455724
_cell_length_c  16.1171033655
_cell_angle_alpha  90.0000000000
_cell_angle_beta  90.0000000000
_cell_angle_gamma  120.0000000000
_symmetry_space_group_name_H-M  'P1'
_symmetry_Int_Tables_Number  1
loop_
_symmetry_equiv_pos_site_id
_symmetry_equiv_pos_as_xyz
  1  x,y,z
loop_
 _atom_site_label
 _atom_site_occupancy
 _atom_site_fract_x
 _atom_site_fract_y
 _atom_site_fract_z
 _atom_site_thermal_displace_type
 _atom_site_B_iso_or_equiv
 _atom_site_type_symbol
Cs1 1.0000000000 0.6666840859 0.3333681719 0.2500000000  Biso 1.0 Cs
Cs2 1.0000000000 0.3333159141 0.6666318281 0.7500000000  Biso 1.0 Cs
Gd3 1.0000000000 0.0000000000 0.0000000000 0.0000000000  Biso 1.0 Gd
Gd4 1.0000000000 0.0000000000 0.0000000000 0.5000000000  Biso 1.0 Gd
S5 1.0000000000 0.6666708730 0.3333417460 0.5917100799  Biso 1.0 S
S6 1.0000000000 0.3333291270 0.6666582540 0.0917100799  Biso 1.0 S
S7 1.0000000000 0.3333291270 0.6666582540 0.4082899201  Biso 1.0 S
S8 1.0000000000 0.6666708730 0.3333417460 0.9082899201  Biso 1.0 S
