# AFLOW.org Repositories
# Cs1I3Sn1 #221 - (Cs1I3Sn1_ICSD_69997) - 
data_Cs1I3Sn1
_pd_phase_name Cs1I3Sn1
_cell_length_a  6.2721616687
_cell_length_b  6.2721616687
_cell_length_c  6.2721616687
_cell_angle_alpha  90.0000000000
_cell_angle_beta  90.0000000000
_cell_angle_gamma  90.0000000000
_symmetry_space_group_name_H-M  'P1'
_symmetry_Int_Tables_Number  1
loop_
_symmetry_equiv_pos_site_id
_symmetry_equiv_pos_as_xyz
  1  x,y,z
loop_
 _atom_site_label
 _atom_site_occupancy
 _atom_site_fract_x
 _atom_site_fract_y
 _atom_site_fract_z
 _atom_site_thermal_displace_type
 _atom_site_B_iso_or_equiv
 _atom_site_type_symbol
Cs1 1.0000000000 0.5000000000 0.5000000000 0.5000000000  Biso 1.0 Cs
I2 1.0000000000 0.5000000000 0.0000000000 0.0000000000  Biso 1.0 I
I3 1.0000000000 0.0000000000 0.5000000000 0.0000000000  Biso 1.0 I
I4 1.0000000000 0.0000000000 0.0000000000 0.5000000000  Biso 1.0 I
Sn5 1.0000000000 0.0000000000 0.0000000000 0.0000000000  Biso 1.0 Sn
