# AFLOW.org Repositories
# Cu1Er1Pb1 #194 - (Cu1Er1Pb1_ICSD_627233)
data_Cu1Er1Pb1
_pd_phase_name Cu1Er1Pb1
_cell_length_a  4.6137519138
_cell_length_b  4.6137519138
_cell_length_c  7.2947603966
_cell_angle_alpha  90.0000000000
_cell_angle_beta  90.0000000000
_cell_angle_gamma  120.0000000000
_symmetry_space_group_name_H-M  'P1'
_symmetry_Int_Tables_Number  1
loop_
_symmetry_equiv_pos_site_id
_symmetry_equiv_pos_as_xyz
  1  x,y,z
loop_
 _atom_site_label
 _atom_site_occupancy
 _atom_site_fract_x
 _atom_site_fract_y
 _atom_site_fract_z
 _atom_site_thermal_displace_type
 _atom_site_B_iso_or_equiv
 _atom_site_type_symbol
Cu1 1.0000000000 0.3333240760 0.6666759240 0.2500000000  Biso 1.0 Cu
Cu2 1.0000000000 0.6666759240 0.3333240760 0.7500000000  Biso 1.0 Cu
Er3 1.0000000000 0.0000000000 0.0000000000 0.0000000000  Biso 1.0 Er
Er4 1.0000000000 0.0000000000 0.0000000000 0.5000000000  Biso 1.0 Er
Pb5 1.0000000000 0.3333327733 0.6666672267 0.7500000000  Biso 1.0 Pb
Pb6 1.0000000000 0.6666672267 0.3333327733 0.2500000000  Biso 1.0 Pb
