# AFLOW.org Repositories
# Cu1Nb4Si1 #124 - (Cu1Nb4Si1_ICSD_628492)
data_Cu1Nb4Si1
_pd_phase_name Cu1Nb4Si1
_cell_length_a  6.2545783121
_cell_length_b  6.2545783121
_cell_length_c  5.0722405427
_cell_angle_alpha  90.0000000000
_cell_angle_beta  90.0000000000
_cell_angle_gamma  90.0000000000
_symmetry_space_group_name_H-M  'P1'
_symmetry_Int_Tables_Number  1
loop_
_symmetry_equiv_pos_site_id
_symmetry_equiv_pos_as_xyz
  1  x,y,z
loop_
 _atom_site_label
 _atom_site_occupancy
 _atom_site_fract_x
 _atom_site_fract_y
 _atom_site_fract_z
 _atom_site_thermal_displace_type
 _atom_site_B_iso_or_equiv
 _atom_site_type_symbol
Cu1 1.0000000000 0.0000000000 0.0000000000 0.2500000000  Biso 1.0 Cu
Cu2 1.0000000000 0.0000000000 0.0000000000 0.7500000000  Biso 1.0 Cu
Nb3 1.0000000000 0.1595935457 0.6579280083 0.0000000000  Biso 1.0 Nb
Nb4 1.0000000000 0.8404064543 0.3420719917 0.0000000000  Biso 1.0 Nb
Nb5 1.0000000000 0.3420719917 0.1595935457 0.0000000000  Biso 1.0 Nb
Nb6 1.0000000000 0.6579280083 0.8404064543 0.0000000000  Biso 1.0 Nb
Nb7 1.0000000000 0.8404064543 0.6579280083 0.5000000000  Biso 1.0 Nb
Nb8 1.0000000000 0.1595935457 0.3420719917 0.5000000000  Biso 1.0 Nb
Nb9 1.0000000000 0.6579280083 0.1595935457 0.5000000000  Biso 1.0 Nb
Nb10 1.0000000000 0.3420719917 0.8404064543 0.5000000000  Biso 1.0 Nb
Si11 1.0000000000 0.5000000000 0.5000000000 0.2500000000  Biso 1.0 Si
Si12 1.0000000000 0.5000000000 0.5000000000 0.7500000000  Biso 1.0 Si
