# AFLOW.org Repositories
# Cu2Ho2In1 #127 - (Cu2Ho2In1_ICSD_627951)
data_Cu2Ho2In1
_pd_phase_name Cu2Ho2In1
_cell_length_a  7.5054684968
_cell_length_b  7.5054684968
_cell_length_c  3.7281637760
_cell_angle_alpha  90.0000000000
_cell_angle_beta  90.0000000000
_cell_angle_gamma  90.0000000000
_symmetry_space_group_name_H-M  'P1'
_symmetry_Int_Tables_Number  1
loop_
_symmetry_equiv_pos_site_id
_symmetry_equiv_pos_as_xyz
  1  x,y,z
loop_
 _atom_site_label
 _atom_site_occupancy
 _atom_site_fract_x
 _atom_site_fract_y
 _atom_site_fract_z
 _atom_site_thermal_displace_type
 _atom_site_B_iso_or_equiv
 _atom_site_type_symbol
Cu1 1.0000000000 0.6205102038 0.1205102038 0.0000000000  Biso 1.0 Cu
Cu2 1.0000000000 0.3794897962 0.8794897962 0.0000000000  Biso 1.0 Cu
Cu3 1.0000000000 0.8794897962 0.6205102038 0.0000000000  Biso 1.0 Cu
Cu4 1.0000000000 0.1205102038 0.3794897962 0.0000000000  Biso 1.0 Cu
Ho5 1.0000000000 0.1732206693 0.6732206693 0.5000000000  Biso 1.0 Ho
Ho6 1.0000000000 0.8267793307 0.3267793307 0.5000000000  Biso 1.0 Ho
Ho7 1.0000000000 0.3267793307 0.1732206693 0.5000000000  Biso 1.0 Ho
Ho8 1.0000000000 0.6732206693 0.8267793307 0.5000000000  Biso 1.0 Ho
In9 1.0000000000 0.0000000000 0.0000000000 0.0000000000  Biso 1.0 In
In10 1.0000000000 0.5000000000 0.5000000000 0.0000000000  Biso 1.0 In
