# AFLOW.org Repositories
# Cu2Te2Tl1 #139 - (Cu2Te2Tl1_ICSD_601653)
data_Cu2Te2Tl1
_pd_phase_name Cu2Te2Tl1
_cell_length_a  8.3128510032
_cell_length_b  8.3128510032
_cell_length_c  8.3128510032
_cell_angle_alpha  152.0359159285
_cell_angle_beta  152.0359159285
_cell_angle_gamma  39.9608555624
_symmetry_space_group_name_H-M  'P1'
_symmetry_Int_Tables_Number  1
loop_
_symmetry_equiv_pos_site_id
_symmetry_equiv_pos_as_xyz
  1  x,y,z
loop_
 _atom_site_label
 _atom_site_occupancy
 _atom_site_fract_x
 _atom_site_fract_y
 _atom_site_fract_z
 _atom_site_thermal_displace_type
 _atom_site_B_iso_or_equiv
 _atom_site_type_symbol
Cu1 1.0000000000 0.7500000000 0.2500000000 0.5000000000  Biso 1.0 Cu
Cu2 1.0000000000 0.2500000000 0.7500000000 0.5000000000  Biso 1.0 Cu
Te3 1.0000000000 0.6399645045 0.6399645045 0.0000000000  Biso 1.0 Te
Te4 1.0000000000 0.3600354955 0.3600354955 0.0000000000  Biso 1.0 Te
Tl5 1.0000000000 0.0000000000 0.0000000000 0.0000000000  Biso 1.0 Tl
