# AFLOW.org Repositories
# Cu3Dy3Sb4 #220 - (Cu3Dy3Sb4_ICSD_658643)
data_Cu3Dy3Sb4
_pd_phase_name Cu3Dy3Sb4
_cell_length_a  8.3068887819
_cell_length_b  8.3068887819
_cell_length_c  8.3068887819
_cell_angle_alpha  109.4712206345
_cell_angle_beta  109.4712206345
_cell_angle_gamma  109.4712206345
_symmetry_space_group_name_H-M  'P1'
_symmetry_Int_Tables_Number  1
loop_
_symmetry_equiv_pos_site_id
_symmetry_equiv_pos_as_xyz
  1  x,y,z
loop_
 _atom_site_label
 _atom_site_occupancy
 _atom_site_fract_x
 _atom_site_fract_y
 _atom_site_fract_z
 _atom_site_thermal_displace_type
 _atom_site_B_iso_or_equiv
 _atom_site_type_symbol
Cu1 1.0000000000 0.7500000000 0.6250000000 0.8750000000  Biso 1.0 Cu
Cu2 1.0000000000 0.2500000000 0.8750000000 0.6250000000  Biso 1.0 Cu
Cu3 1.0000000000 0.1250000000 0.2500000000 0.3750000000  Biso 1.0 Cu
Cu4 1.0000000000 0.3750000000 0.7500000000 0.1250000000  Biso 1.0 Cu
Cu5 1.0000000000 0.8750000000 0.1250000000 0.7500000000  Biso 1.0 Cu
Cu6 1.0000000000 0.6250000000 0.3750000000 0.2500000000  Biso 1.0 Cu
Dy7 1.0000000000 0.7500000000 0.1250000000 0.3750000000  Biso 1.0 Dy
Dy8 1.0000000000 0.2500000000 0.3750000000 0.1250000000  Biso 1.0 Dy
Dy9 1.0000000000 0.6250000000 0.2500000000 0.8750000000  Biso 1.0 Dy
Dy10 1.0000000000 0.8750000000 0.7500000000 0.6250000000  Biso 1.0 Dy
Dy11 1.0000000000 0.3750000000 0.6250000000 0.7500000000  Biso 1.0 Dy
Dy12 1.0000000000 0.1250000000 0.8750000000 0.2500000000  Biso 1.0 Dy
Sb13 1.0000000000 0.8395927873 0.0000000000 0.0000000000  Biso 1.0 Sb
Sb14 1.0000000000 0.5000000000 0.8395927873 0.5000000000  Biso 1.0 Sb
Sb15 1.0000000000 0.0000000000 0.5000000000 0.3395927873  Biso 1.0 Sb
Sb16 1.0000000000 0.6604072127 0.6604072127 0.1604072127  Biso 1.0 Sb
Sb17 1.0000000000 0.3395927873 0.0000000000 0.0000000000  Biso 1.0 Sb
Sb18 1.0000000000 0.5000000000 0.3395927873 0.5000000000  Biso 1.0 Sb
Sb19 1.0000000000 0.1604072127 0.1604072127 0.6604072127  Biso 1.0 Sb
Sb20 1.0000000000 0.0000000000 0.5000000000 0.8395927873  Biso 1.0 Sb
