# AFLOW.org Repositories
# Dy1Li1O2 #62 - (Dy1Li1O2_ICSD_422562) - 
data_Dy1Li1O2
_pd_phase_name Dy1Li1O2
_cell_length_a  3.3915504378
_cell_length_b  5.3269282916
_cell_length_c  11.2344058387
_cell_angle_alpha  90.0000000000
_cell_angle_beta  90.0000000000
_cell_angle_gamma  90.0000000000
_symmetry_space_group_name_H-M  'P1'
_symmetry_Int_Tables_Number  1
loop_
_symmetry_equiv_pos_site_id
_symmetry_equiv_pos_as_xyz
  1  x,y,z
loop_
 _atom_site_label
 _atom_site_occupancy
 _atom_site_fract_x
 _atom_site_fract_y
 _atom_site_fract_z
 _atom_site_thermal_displace_type
 _atom_site_B_iso_or_equiv
 _atom_site_type_symbol
Dy1 1.0000000000 0.7500000000 0.9534664199 0.3594682062  Biso 1.0 Dy
Dy2 1.0000000000 0.2500000000 0.4534664199 0.1405317938  Biso 1.0 Dy
Dy3 1.0000000000 0.2500000000 0.0465335801 0.6405317938  Biso 1.0 Dy
Dy4 1.0000000000 0.7500000000 0.5465335801 0.8594682062  Biso 1.0 Dy
Li5 1.0000000000 0.7500000000 0.9023633750 0.0668967325  Biso 1.0 Li
Li6 1.0000000000 0.2500000000 0.4023633750 0.4331032675  Biso 1.0 Li
Li7 1.0000000000 0.2500000000 0.0976366250 0.9331032675  Biso 1.0 Li
Li8 1.0000000000 0.7500000000 0.5976366250 0.5668967325  Biso 1.0 Li
O9 1.0000000000 0.7500000000 0.2589660525 0.0263861879  Biso 1.0 O
O10 1.0000000000 0.2500000000 0.7589660525 0.4736138121  Biso 1.0 O
O11 1.0000000000 0.2500000000 0.7410339475 0.9736138121  Biso 1.0 O
O12 1.0000000000 0.7500000000 0.2410339475 0.5263861879  Biso 1.0 O
O13 1.0000000000 0.7500000000 0.6902535242 0.2064529520  Biso 1.0 O
O14 1.0000000000 0.2500000000 0.1902535242 0.2935470480  Biso 1.0 O
O15 1.0000000000 0.2500000000 0.3097464758 0.7935470480  Biso 1.0 O
O16 1.0000000000 0.7500000000 0.8097464758 0.7064529520  Biso 1.0 O
