# AFLOW.org Repositories
# Dy1S2 #129.2 - (Dy1S2_ICSD_630195) - Dy1
data_Dy1S2
_pd_phase_name Dy1S2
_cell_length_a  3.8610271300
_cell_length_b  3.8610271300
_cell_length_c  7.9559719199
_cell_angle_alpha  90.0000000000
_cell_angle_beta  90.0000000000
_cell_angle_gamma  90.0000000000
_symmetry_space_group_name_H-M  'P1'
_symmetry_Int_Tables_Number  1
loop_
_symmetry_equiv_pos_site_id
_symmetry_equiv_pos_as_xyz
  1  x,y,z
loop_
 _atom_site_label
 _atom_site_occupancy
 _atom_site_fract_x
 _atom_site_fract_y
 _atom_site_fract_z
 _atom_site_thermal_displace_type
 _atom_site_B_iso_or_equiv
 _atom_site_type_symbol
Dy1 1.0000000000 0.2500000000 0.2500000000 0.2733330121  Biso 1.0 Dy
Dy2 1.0000000000 0.7500000000 0.7500000000 0.7266669879  Biso 1.0 Dy
S3 1.0000000000 0.7500000000 0.2500000000 0.0000000000  Biso 1.0 S
S4 1.0000000000 0.2500000000 0.7500000000 0.0000000000  Biso 1.0 S
S5 1.0000000000 0.2500000000 0.2500000000 0.6318652135  Biso 1.0 S
S6 1.0000000000 0.7500000000 0.7500000000 0.3681347865  Biso 1.0 S
