# AFLOW.org Repositories
# Dy5Rh3 #193 - (Dy5Rh3_ICSD_630149) - Dy5
data_Dy5Rh3
_pd_phase_name Dy5Rh3
_cell_length_a  8.1797270834
_cell_length_b  8.1797270834
_cell_length_c  6.3460651804
_cell_angle_alpha  90.0000000000
_cell_angle_beta  90.0000000000
_cell_angle_gamma  120.0000000000
_symmetry_space_group_name_H-M  'P1'
_symmetry_Int_Tables_Number  1
loop_
_symmetry_equiv_pos_site_id
_symmetry_equiv_pos_as_xyz
  1  x,y,z
loop_
 _atom_site_label
 _atom_site_occupancy
 _atom_site_fract_x
 _atom_site_fract_y
 _atom_site_fract_z
 _atom_site_thermal_displace_type
 _atom_site_B_iso_or_equiv
 _atom_site_type_symbol
Dy1 1.0000000000 0.6666734363 0.3333468725 0.0000000000  Biso 1.0 Dy
Dy2 1.0000000000 0.3333265637 0.6666531275 0.5000000000  Biso 1.0 Dy
Dy3 1.0000000000 0.3333265637 0.6666531275 0.0000000000  Biso 1.0 Dy
Dy4 1.0000000000 0.6666734363 0.3333468725 0.5000000000  Biso 1.0 Dy
Dy5 1.0000000000 0.0000000000 0.7525213850 0.2500000000  Biso 1.0 Dy
Dy6 1.0000000000 0.2474786150 0.2474786150 0.2500000000  Biso 1.0 Dy
Dy7 1.0000000000 0.7525043610 0.0000000000 0.2500000000  Biso 1.0 Dy
Dy8 1.0000000000 0.0000000000 0.2474786150 0.7500000000  Biso 1.0 Dy
Dy9 1.0000000000 0.7525213850 0.7525213850 0.7500000000  Biso 1.0 Dy
Dy10 1.0000000000 0.2474956390 0.0000000000 0.7500000000  Biso 1.0 Dy
Rh11 1.0000000000 0.0000000000 0.3985468212 0.2500000000  Biso 1.0 Rh
Rh12 1.0000000000 0.6014531788 0.6014531788 0.2500000000  Biso 1.0 Rh
Rh13 1.0000000000 0.3985444232 0.0000000000 0.2500000000  Biso 1.0 Rh
Rh14 1.0000000000 0.0000000000 0.6014531788 0.7500000000  Biso 1.0 Rh
Rh15 1.0000000000 0.3985468212 0.3985468212 0.7500000000  Biso 1.0 Rh
Rh16 1.0000000000 0.6014555768 0.0000000000 0.7500000000  Biso 1.0 Rh
