# AFLOW.org Repositories
# Er2In1Ni2 #127 - (Er2In1Ni2_ICSD_630690)
data_Er2In1Ni2
_pd_phase_name Er2In1Ni2
_cell_length_a  7.3057692095
_cell_length_b  7.3057692095
_cell_length_c  3.6044597480
_cell_angle_alpha  90.0000000000
_cell_angle_beta  90.0000000000
_cell_angle_gamma  90.0000000000
_symmetry_space_group_name_H-M  'P1'
_symmetry_Int_Tables_Number  1
loop_
_symmetry_equiv_pos_site_id
_symmetry_equiv_pos_as_xyz
  1  x,y,z
loop_
 _atom_site_label
 _atom_site_occupancy
 _atom_site_fract_x
 _atom_site_fract_y
 _atom_site_fract_z
 _atom_site_thermal_displace_type
 _atom_site_B_iso_or_equiv
 _atom_site_type_symbol
Er1 1.0000000000 0.1734368185 0.6734368185 0.5000000000  Biso 1.0 Er
Er2 1.0000000000 0.8265631815 0.3265631815 0.5000000000  Biso 1.0 Er
Er3 1.0000000000 0.3265631815 0.1734368185 0.5000000000  Biso 1.0 Er
Er4 1.0000000000 0.6734368185 0.8265631815 0.5000000000  Biso 1.0 Er
In5 1.0000000000 0.0000000000 0.0000000000 0.0000000000  Biso 1.0 In
In6 1.0000000000 0.5000000000 0.5000000000 0.0000000000  Biso 1.0 In
Ni7 1.0000000000 0.6218780569 0.1218780569 0.0000000000  Biso 1.0 Ni
Ni8 1.0000000000 0.3781219431 0.8781219431 0.0000000000  Biso 1.0 Ni
Ni9 1.0000000000 0.8781219431 0.6218780569 0.0000000000  Biso 1.0 Ni
Ni10 1.0000000000 0.1218780569 0.3781219431 0.0000000000  Biso 1.0 Ni
