# AFLOW.org Repositories
# Fe1Ga2Hf6 #189 - (Fe1Ga2Hf6_ICSD_631770)
data_Fe1Ga2Hf6
_pd_phase_name Fe1Ga2Hf6
_cell_length_a  7.8135771082
_cell_length_b  7.8135771082
_cell_length_c  3.2764125260
_cell_angle_alpha  90.0000000000
_cell_angle_beta  90.0000000000
_cell_angle_gamma  120.0000000000
_symmetry_space_group_name_H-M  'P1'
_symmetry_Int_Tables_Number  1
loop_
_symmetry_equiv_pos_site_id
_symmetry_equiv_pos_as_xyz
  1  x,y,z
loop_
 _atom_site_label
 _atom_site_occupancy
 _atom_site_fract_x
 _atom_site_fract_y
 _atom_site_fract_z
 _atom_site_thermal_displace_type
 _atom_site_B_iso_or_equiv
 _atom_site_type_symbol
Fe1 1.0000000000 0.0000000000 0.0000000000 0.5000000000  Biso 1.0 Fe
Ga2 1.0000000000 0.6666339452 0.3332816597 0.0000000000  Biso 1.0 Ga
Ga3 1.0000000000 0.3333522855 0.6667183403 0.0000000000  Biso 1.0 Ga
Hf4 1.0000000000 0.0000000000 0.7496452533 0.0000000000  Biso 1.0 Hf
Hf5 1.0000000000 0.2503547467 0.2503547467 0.0000000000  Biso 1.0 Hf
Hf6 1.0000000000 0.7496300120 0.0000000000 0.0000000000  Biso 1.0 Hf
Hf7 1.0000000000 0.0000000000 0.3988222352 0.5000000000  Biso 1.0 Hf
Hf8 1.0000000000 0.6011777648 0.6011777648 0.5000000000  Biso 1.0 Hf
Hf9 1.0000000000 0.3988713151 0.0000000000 0.5000000000  Biso 1.0 Hf
