# AFLOW.org Repositories
# Ga1Ho1O3 #62 - (Ga1Ho1O3_ICSD_420711) - 
data_Ga1Ho1O3
_pd_phase_name Ga1Ho1O3
_cell_length_a  5.2718921556
_cell_length_b  5.5773860608
_cell_length_c  7.5885701371
_cell_angle_alpha  90.0000000000
_cell_angle_beta  90.0000000000
_cell_angle_gamma  90.0000000000
_symmetry_space_group_name_H-M  'P1'
_symmetry_Int_Tables_Number  1
loop_
_symmetry_equiv_pos_site_id
_symmetry_equiv_pos_as_xyz
  1  x,y,z
loop_
 _atom_site_label
 _atom_site_occupancy
 _atom_site_fract_x
 _atom_site_fract_y
 _atom_site_fract_z
 _atom_site_thermal_displace_type
 _atom_site_B_iso_or_equiv
 _atom_site_type_symbol
Ga1 1.0000000000 0.0000000000 0.0000000000 0.5000000000  Biso 1.0 Ga
Ga2 1.0000000000 0.5000000000 0.5000000000 0.5000000000  Biso 1.0 Ga
Ga3 1.0000000000 0.0000000000 0.0000000000 0.0000000000  Biso 1.0 Ga
Ga4 1.0000000000 0.5000000000 0.5000000000 0.0000000000  Biso 1.0 Ga
Ho5 1.0000000000 0.9807757885 0.5693052121 0.7500000000  Biso 1.0 Ho
Ho6 1.0000000000 0.4807757885 0.9306947879 0.2500000000  Biso 1.0 Ho
Ho7 1.0000000000 0.0192242115 0.4306947879 0.2500000000  Biso 1.0 Ho
Ho8 1.0000000000 0.5192242115 0.0693052121 0.7500000000  Biso 1.0 Ho
O9 1.0000000000 0.8880667106 0.0386884038 0.2500000000  Biso 1.0 O
O10 1.0000000000 0.3880667106 0.4613115962 0.7500000000  Biso 1.0 O
O11 1.0000000000 0.1119332894 0.9613115962 0.7500000000  Biso 1.0 O
O12 1.0000000000 0.6119332894 0.5386884038 0.2500000000  Biso 1.0 O
O13 1.0000000000 0.3062704219 0.1950849698 0.4429897431  Biso 1.0 O
O14 1.0000000000 0.8062704219 0.3049150302 0.5570102569  Biso 1.0 O
O15 1.0000000000 0.6937295781 0.8049150302 0.9429897431  Biso 1.0 O
O16 1.0000000000 0.1937295781 0.6950849698 0.0570102569  Biso 1.0 O
O17 1.0000000000 0.6937295781 0.8049150302 0.5570102569  Biso 1.0 O
O18 1.0000000000 0.1937295781 0.6950849698 0.4429897431  Biso 1.0 O
O19 1.0000000000 0.3062704219 0.1950849698 0.0570102569  Biso 1.0 O
O20 1.0000000000 0.8062704219 0.3049150302 0.9429897431  Biso 1.0 O
