# AFLOW.org Repositories
# Ga1Hf1Ni1 #189 - (Ga1Hf1Ni1_ICSD_634315)
data_Ga1Hf1Ni1
_pd_phase_name Ga1Hf1Ni1
_cell_length_a  6.8328410268
_cell_length_b  6.8328410268
_cell_length_c  3.4110061337
_cell_angle_alpha  90.0000000000
_cell_angle_beta  90.0000000000
_cell_angle_gamma  120.0000000000
_symmetry_space_group_name_H-M  'P1'
_symmetry_Int_Tables_Number  1
loop_
_symmetry_equiv_pos_site_id
_symmetry_equiv_pos_as_xyz
  1  x,y,z
loop_
 _atom_site_label
 _atom_site_occupancy
 _atom_site_fract_x
 _atom_site_fract_y
 _atom_site_fract_z
 _atom_site_thermal_displace_type
 _atom_site_B_iso_or_equiv
 _atom_site_type_symbol
Ga1 1.0000000000 0.0000000000 0.7409779313 0.0000000000  Biso 1.0 Ga
Ga2 1.0000000000 0.2590220687 0.2590220687 0.0000000000  Biso 1.0 Ga
Ga3 1.0000000000 0.7409739064 0.0000000000 0.0000000000  Biso 1.0 Ga
Hf4 1.0000000000 0.0000000000 0.4052884342 0.5000000000  Biso 1.0 Hf
Hf5 1.0000000000 0.5947115658 0.5947115658 0.5000000000  Biso 1.0 Hf
Hf6 1.0000000000 0.4052866900 0.0000000000 0.5000000000  Biso 1.0 Hf
Ni7 1.0000000000 0.6666742465 0.3333280799 0.0000000000  Biso 1.0 Ni
Ni8 1.0000000000 0.3333461666 0.6666719201 0.0000000000  Biso 1.0 Ni
Ni9 1.0000000000 0.0000000000 0.0000000000 0.5000000000  Biso 1.0 Ni
