# AFLOW.org Repositories
# Ge1 #206 - (Ge1_ICSD_173890) - Ge1 [Ge1]
data_Ge1
_pd_phase_name Ge1
_cell_length_a  6.0921665807
_cell_length_b  6.0921665807
_cell_length_c  6.0921665807
_cell_angle_alpha  109.4712206345
_cell_angle_beta  109.4712206345
_cell_angle_gamma  109.4712206345
_symmetry_space_group_name_H-M  'P1'
_symmetry_Int_Tables_Number  1
loop_
_symmetry_equiv_pos_site_id
_symmetry_equiv_pos_as_xyz
  1  x,y,z
loop_
 _atom_site_label
 _atom_site_occupancy
 _atom_site_fract_x
 _atom_site_fract_y
 _atom_site_fract_z
 _atom_site_thermal_displace_type
 _atom_site_B_iso_or_equiv
 _atom_site_type_symbol
Ge1 1.0000000000 0.0000000000 0.7969312316 0.0000000000  Biso 1.0 Ge
Ge2 1.0000000000 0.2969312316 0.0000000000 0.5000000000  Biso 1.0 Ge
Ge3 1.0000000000 0.2030687684 0.7030687684 0.7030687684  Biso 1.0 Ge
Ge4 1.0000000000 0.5000000000 0.5000000000 0.7969312316  Biso 1.0 Ge
Ge5 1.0000000000 0.0000000000 0.2030687684 0.0000000000  Biso 1.0 Ge
Ge6 1.0000000000 0.7030687684 0.0000000000 0.5000000000  Biso 1.0 Ge
Ge7 1.0000000000 0.7969312316 0.2969312316 0.2969312316  Biso 1.0 Ge
Ge8 1.0000000000 0.5000000000 0.5000000000 0.2030687684  Biso 1.0 Ge
