# AFLOW.org Repositories
# Ge1Hf1V1 #129.2 - (Ge1Hf1V1_ICSD_636594)
data_Ge1Hf1V1
_pd_phase_name Ge1Hf1V1
_cell_length_a  3.7158520242
_cell_length_b  3.7158520242
_cell_length_c  7.3106331517
_cell_angle_alpha  90.0000000000
_cell_angle_beta  90.0000000000
_cell_angle_gamma  90.0000000000
_symmetry_space_group_name_H-M  'P1'
_symmetry_Int_Tables_Number  1
loop_
_symmetry_equiv_pos_site_id
_symmetry_equiv_pos_as_xyz
  1  x,y,z
loop_
 _atom_site_label
 _atom_site_occupancy
 _atom_site_fract_x
 _atom_site_fract_y
 _atom_site_fract_z
 _atom_site_thermal_displace_type
 _atom_site_B_iso_or_equiv
 _atom_site_type_symbol
Ge1 1.0000000000 0.2500000000 0.2500000000 0.2514026059  Biso 1.0 Ge
Ge2 1.0000000000 0.7500000000 0.7500000000 0.7485973941  Biso 1.0 Ge
Hf3 1.0000000000 0.2500000000 0.2500000000 0.6376279791  Biso 1.0 Hf
Hf4 1.0000000000 0.7500000000 0.7500000000 0.3623720209  Biso 1.0 Hf
V5 1.0000000000 0.7500000000 0.2500000000 0.0000000000  Biso 1.0 V
V6 1.0000000000 0.2500000000 0.7500000000 0.0000000000  Biso 1.0 V
