# AFLOW.org Repositories
# Ge1Ir1Zr1 #62 - (Ge1Ir1Zr1_ICSD_636771) 
data_Ge1Ir1Zr1
_pd_phase_name Ge1Ir1Zr1
_cell_length_a  4.0489792995
_cell_length_b  6.6337000851
_cell_length_c  7.5607080399
_cell_angle_alpha  90.0000000000
_cell_angle_beta  90.0000000000
_cell_angle_gamma  90.0000000000
_symmetry_space_group_name_H-M  'P1'
_symmetry_Int_Tables_Number  1
loop_
_symmetry_equiv_pos_site_id
_symmetry_equiv_pos_as_xyz
  1  x,y,z
loop_
 _atom_site_label
 _atom_site_occupancy
 _atom_site_fract_x
 _atom_site_fract_y
 _atom_site_fract_z
 _atom_site_thermal_displace_type
 _atom_site_B_iso_or_equiv
 _atom_site_type_symbol
Ge1 1.0000000000 0.2500000000 0.7698114486 0.3834124910  Biso 1.0 Ge
Ge2 1.0000000000 0.7500000000 0.7301885514 0.8834124910  Biso 1.0 Ge
Ge3 1.0000000000 0.7500000000 0.2301885514 0.6165875090  Biso 1.0 Ge
Ge4 1.0000000000 0.2500000000 0.2698114486 0.1165875090  Biso 1.0 Ge
Ir5 1.0000000000 0.2500000000 0.1483412327 0.4345510382  Biso 1.0 Ir
Ir6 1.0000000000 0.7500000000 0.3516587673 0.9345510382  Biso 1.0 Ir
Ir7 1.0000000000 0.7500000000 0.8516587673 0.5654489618  Biso 1.0 Ir
Ir8 1.0000000000 0.2500000000 0.6483412327 0.0654489618  Biso 1.0 Ir
Zr9 1.0000000000 0.2500000000 0.0191632734 0.8114391525  Biso 1.0 Zr
Zr10 1.0000000000 0.7500000000 0.4808367266 0.3114391525  Biso 1.0 Zr
Zr11 1.0000000000 0.7500000000 0.9808367266 0.1885608475  Biso 1.0 Zr
Zr12 1.0000000000 0.2500000000 0.5191632734 0.6885608475  Biso 1.0 Zr
