# AFLOW.org Repositories
# Ge2Ir2Tb1 #129.2 - (Ge2Ir2Tb1_ICSD_63674
data_Ge2Ir2Tb1
_pd_phase_name Ge2Ir2Tb1
_cell_length_a  4.2117940805
_cell_length_b  4.2117940805
_cell_length_c  10.0721854298
_cell_angle_alpha  90.0000000000
_cell_angle_beta  90.0000000000
_cell_angle_gamma  90.0000000000
_symmetry_space_group_name_H-M  'P1'
_symmetry_Int_Tables_Number  1
loop_
_symmetry_equiv_pos_site_id
_symmetry_equiv_pos_as_xyz
  1  x,y,z
loop_
 _atom_site_label
 _atom_site_occupancy
 _atom_site_fract_x
 _atom_site_fract_y
 _atom_site_fract_z
 _atom_site_thermal_displace_type
 _atom_site_B_iso_or_equiv
 _atom_site_type_symbol
Ge1 1.0000000000 0.7500000000 0.2500000000 0.5000000000  Biso 1.0 Ge
Ge2 1.0000000000 0.2500000000 0.7500000000 0.5000000000  Biso 1.0 Ge
Ge3 1.0000000000 0.2500000000 0.2500000000 0.1318828387  Biso 1.0 Ge
Ge4 1.0000000000 0.7500000000 0.7500000000 0.8681171613  Biso 1.0 Ge
Ir5 1.0000000000 0.7500000000 0.2500000000 0.0000000000  Biso 1.0 Ir
Ir6 1.0000000000 0.2500000000 0.7500000000 0.0000000000  Biso 1.0 Ir
Ir7 1.0000000000 0.2500000000 0.2500000000 0.3709064714  Biso 1.0 Ir
Ir8 1.0000000000 0.7500000000 0.7500000000 0.6290935286  Biso 1.0 Ir
Tb9 1.0000000000 0.2500000000 0.2500000000 0.7481791369  Biso 1.0 Tb
Tb10 1.0000000000 0.7500000000 0.7500000000 0.2518208631  Biso 1.0 Tb
