# AFLOW.org Repositories
# Ge2Pt2Th1 #129.2 - (Ge2Pt2Th1_ICSD_63765
data_Ge2Pt2Th1
_pd_phase_name Ge2Pt2Th1
_cell_length_a  4.4424044222
_cell_length_b  4.4424044222
_cell_length_c  9.9659017339
_cell_angle_alpha  90.0000000000
_cell_angle_beta  90.0000000000
_cell_angle_gamma  90.0000000000
_symmetry_space_group_name_H-M  'P1'
_symmetry_Int_Tables_Number  1
loop_
_symmetry_equiv_pos_site_id
_symmetry_equiv_pos_as_xyz
  1  x,y,z
loop_
 _atom_site_label
 _atom_site_occupancy
 _atom_site_fract_x
 _atom_site_fract_y
 _atom_site_fract_z
 _atom_site_thermal_displace_type
 _atom_site_B_iso_or_equiv
 _atom_site_type_symbol
Ge1 1.0000000000 0.7500000000 0.2500000000 0.5000000000  Biso 1.0 Ge
Ge2 1.0000000000 0.2500000000 0.7500000000 0.5000000000  Biso 1.0 Ge
Ge3 1.0000000000 0.2500000000 0.2500000000 0.1283783527  Biso 1.0 Ge
Ge4 1.0000000000 0.7500000000 0.7500000000 0.8716216473  Biso 1.0 Ge
Pt5 1.0000000000 0.7500000000 0.2500000000 0.0000000000  Biso 1.0 Pt
Pt6 1.0000000000 0.2500000000 0.7500000000 0.0000000000  Biso 1.0 Pt
Pt7 1.0000000000 0.2500000000 0.2500000000 0.3790815448  Biso 1.0 Pt
Pt8 1.0000000000 0.7500000000 0.7500000000 0.6209184552  Biso 1.0 Pt
Th9 1.0000000000 0.2500000000 0.2500000000 0.7530019943  Biso 1.0 Th
Th10 1.0000000000 0.7500000000 0.7500000000 0.2469980057  Biso 1.0 Th
