# AFLOW.org Repositories
# Ge2Ru2Th1 #139 - (Ge2Ru2Th1_ICSD_637761)
data_Ge2Ru2Th1
_pd_phase_name Ge2Ru2Th1
_cell_length_a  5.9061218076
_cell_length_b  5.9061218076
_cell_length_c  5.9061218076
_cell_angle_alpha  137.0503532957
_cell_angle_beta  137.0503532957
_cell_angle_gamma  62.3605852205
_symmetry_space_group_name_H-M  'P1'
_symmetry_Int_Tables_Number  1
loop_
_symmetry_equiv_pos_site_id
_symmetry_equiv_pos_as_xyz
  1  x,y,z
loop_
 _atom_site_label
 _atom_site_occupancy
 _atom_site_fract_x
 _atom_site_fract_y
 _atom_site_fract_z
 _atom_site_thermal_displace_type
 _atom_site_B_iso_or_equiv
 _atom_site_type_symbol
Ge1 1.0000000000 0.3670857085 0.3670857085 0.0000000000  Biso 1.0 Ge
Ge2 1.0000000000 0.6329142915 0.6329142915 0.0000000000  Biso 1.0 Ge
Ru3 1.0000000000 0.2500000000 0.7500000000 0.5000000000  Biso 1.0 Ru
Ru4 1.0000000000 0.7500000000 0.2500000000 0.5000000000  Biso 1.0 Ru
Th5 1.0000000000 0.0000000000 0.0000000000 0.0000000000  Biso 1.0 Th
