# AFLOW.org Repositories
# Ge3La1Rh1 #107 - (Ge3La1Rh1_ICSD_161872)
data_Ge3La1Rh1
_pd_phase_name Ge3La1Rh1
_cell_length_a  5.9760484003
_cell_length_b  5.9760484003
_cell_length_c  5.9760484003
_cell_angle_alpha  136.1065633354
_cell_angle_beta  136.1065633354
_cell_angle_gamma  63.8156296186
_symmetry_space_group_name_H-M  'P1'
_symmetry_Int_Tables_Number  1
loop_
_symmetry_equiv_pos_site_id
_symmetry_equiv_pos_as_xyz
  1  x,y,z
loop_
 _atom_site_label
 _atom_site_occupancy
 _atom_site_fract_x
 _atom_site_fract_y
 _atom_site_fract_z
 _atom_site_thermal_displace_type
 _atom_site_B_iso_or_equiv
 _atom_site_type_symbol
Ge1 1.0000000000 0.0000000000 0.0000000000 0.0000000000  Biso 1.0 Ge
Ge2 1.0000000000 0.6589413651 0.1589413651 0.5000000000  Biso 1.0 Ge
Ge3 1.0000000000 0.1589413651 0.6589413651 0.5000000000  Biso 1.0 Ge
La4 1.0000000000 0.4192366623 0.4192366623 0.0000000000  Biso 1.0 La
Rh5 1.0000000000 0.7609018322 0.7609018322 0.0000000000  Biso 1.0 Rh
