# AFLOW.org Repositories
# H1Si3Y5 #193 - (H1Si3Y5_ICSD_638464) - H
data_H1Si3Y5
_pd_phase_name H1Si3Y5
_cell_length_a  8.4686671121
_cell_length_b  8.4686671121
_cell_length_c  6.2662896700
_cell_angle_alpha  90.0000000000
_cell_angle_beta  90.0000000000
_cell_angle_gamma  120.0000000000
_symmetry_space_group_name_H-M  'P1'
_symmetry_Int_Tables_Number  1
loop_
_symmetry_equiv_pos_site_id
_symmetry_equiv_pos_as_xyz
  1  x,y,z
loop_
 _atom_site_label
 _atom_site_occupancy
 _atom_site_fract_x
 _atom_site_fract_y
 _atom_site_fract_z
 _atom_site_thermal_displace_type
 _atom_site_B_iso_or_equiv
 _atom_site_type_symbol
H1 1.0000000000 0.0000000000 0.0000000000 0.5000000000  Biso 1.0 H
H2 1.0000000000 0.0000000000 0.0000000000 0.0000000000  Biso 1.0 H
Si3 1.0000000000 0.6111065005 0.0000000000 0.2500000000  Biso 1.0 Si
Si4 1.0000000000 0.0000000000 0.6111065005 0.2500000000  Biso 1.0 Si
Si5 1.0000000000 0.3888977848 0.3888977848 0.2500000000  Biso 1.0 Si
Si6 1.0000000000 0.3888934995 0.0000000000 0.7500000000  Biso 1.0 Si
Si7 1.0000000000 0.0000000000 0.3888934995 0.7500000000  Biso 1.0 Si
Si8 1.0000000000 0.6111022152 0.6111022152 0.7500000000  Biso 1.0 Si
Y9 1.0000000000 0.3333314427 0.6666685573 0.0000000000  Biso 1.0 Y
Y10 1.0000000000 0.6666685573 0.3333314427 0.5000000000  Biso 1.0 Y
Y11 1.0000000000 0.6666685573 0.3333314427 0.0000000000  Biso 1.0 Y
Y12 1.0000000000 0.3333314427 0.6666685573 0.5000000000  Biso 1.0 Y
Y13 1.0000000000 0.2503627890 0.0000000000 0.2500000000  Biso 1.0 Y
Y14 1.0000000000 0.0000000000 0.2503627890 0.2500000000  Biso 1.0 Y
Y15 1.0000000000 0.7496270220 0.7496270220 0.2500000000  Biso 1.0 Y
Y16 1.0000000000 0.7496372110 0.0000000000 0.7500000000  Biso 1.0 Y
Y17 1.0000000000 0.0000000000 0.7496372110 0.7500000000  Biso 1.0 Y
Y18 1.0000000000 0.2503729780 0.2503729780 0.7500000000  Biso 1.0 Y
