# AFLOW.org Repositories
# H2Mg1 #205 - (H2Mg1_ICSD_168832) - H2Mg1
data_H2Mg1
_pd_phase_name H2Mg1
_cell_length_a  4.7885715299
_cell_length_b  4.7885715299
_cell_length_c  4.7885715299
_cell_angle_alpha  90.0000000000
_cell_angle_beta  90.0000000000
_cell_angle_gamma  90.0000000000
_symmetry_space_group_name_H-M  'P1'
_symmetry_Int_Tables_Number  1
loop_
_symmetry_equiv_pos_site_id
_symmetry_equiv_pos_as_xyz
  1  x,y,z
loop_
 _atom_site_label
 _atom_site_occupancy
 _atom_site_fract_x
 _atom_site_fract_y
 _atom_site_fract_z
 _atom_site_thermal_displace_type
 _atom_site_B_iso_or_equiv
 _atom_site_type_symbol
H1 1.0000000000 0.3468225878 0.3468225878 0.3468225878  Biso 1.0 H
H2 1.0000000000 0.1531774122 0.6531774122 0.8468225878  Biso 1.0 H
H3 1.0000000000 0.6531774122 0.8468225878 0.1531774122  Biso 1.0 H
H4 1.0000000000 0.8468225878 0.1531774122 0.6531774122  Biso 1.0 H
H5 1.0000000000 0.6531774122 0.6531774122 0.6531774122  Biso 1.0 H
H6 1.0000000000 0.8468225878 0.3468225878 0.1531774122  Biso 1.0 H
H7 1.0000000000 0.3468225878 0.1531774122 0.8468225878  Biso 1.0 H
H8 1.0000000000 0.1531774122 0.8468225878 0.3468225878  Biso 1.0 H
Mg9 1.0000000000 0.0000000000 0.0000000000 0.0000000000  Biso 1.0 Mg
Mg10 1.0000000000 0.5000000000 0.0000000000 0.5000000000  Biso 1.0 Mg
Mg11 1.0000000000 0.0000000000 0.5000000000 0.5000000000  Biso 1.0 Mg
Mg12 1.0000000000 0.5000000000 0.5000000000 0.0000000000  Biso 1.0 Mg
