# AFLOW.org Repositories
# Hf1Pt1 #63 - (Hf1Pt1_ICSD_638781) - Hf1P
data_Hf1Pt1
_pd_phase_name Hf1Pt1
_cell_length_a  5.4188034442
_cell_length_b  5.4188034442
_cell_length_c  4.2668771533
_cell_angle_alpha  90.0000000000
_cell_angle_beta  90.0000000000
_cell_angle_gamma  143.5002120871
_symmetry_space_group_name_H-M  'P1'
_symmetry_Int_Tables_Number  1
loop_
_symmetry_equiv_pos_site_id
_symmetry_equiv_pos_as_xyz
  1  x,y,z
loop_
 _atom_site_label
 _atom_site_occupancy
 _atom_site_fract_x
 _atom_site_fract_y
 _atom_site_fract_z
 _atom_site_thermal_displace_type
 _atom_site_B_iso_or_equiv
 _atom_site_type_symbol
Hf1 1.0000000000 0.1420802822 0.8579197178 0.7500000000  Biso 1.0 Hf
Hf2 1.0000000000 0.8579197178 0.1420802822 0.2500000000  Biso 1.0 Hf
Pt3 1.0000000000 0.4068842554 0.5931157446 0.7500000000  Biso 1.0 Pt
Pt4 1.0000000000 0.5931157446 0.4068842554 0.2500000000  Biso 1.0 Pt
