# AFLOW.org Repositories
# Hf1Re1Si1 #189 - (Hf1Re1Si1_ICSD_638814)
data_Hf1Re1Si1
_pd_phase_name Hf1Re1Si1
_cell_length_a  6.9851239819
_cell_length_b  6.9851239819
_cell_length_c  3.3916088948
_cell_angle_alpha  90.0000000000
_cell_angle_beta  90.0000000000
_cell_angle_gamma  120.0000000000
_symmetry_space_group_name_H-M  'P1'
_symmetry_Int_Tables_Number  1
loop_
_symmetry_equiv_pos_site_id
_symmetry_equiv_pos_as_xyz
  1  x,y,z
loop_
 _atom_site_label
 _atom_site_occupancy
 _atom_site_fract_x
 _atom_site_fract_y
 _atom_site_fract_z
 _atom_site_thermal_displace_type
 _atom_site_B_iso_or_equiv
 _atom_site_type_symbol
Hf1 1.0000000000 0.4021147780 0.4021147780 0.5000000000  Biso 1.0 Hf
Hf2 1.0000000000 0.5978825387 0.0000000000 0.5000000000  Biso 1.0 Hf
Hf3 1.0000000000 0.0000000000 0.5978807281 0.5000000000  Biso 1.0 Hf
Re4 1.0000000000 0.7433848246 0.7433848246 0.0000000000  Biso 1.0 Re
Re5 1.0000000000 0.2566150711 0.0000000000 0.0000000000  Biso 1.0 Re
Re6 1.0000000000 0.0000000000 0.2566126499 0.0000000000  Biso 1.0 Re
Si7 1.0000000000 0.3333337132 0.6666693234 0.0000000000  Biso 1.0 Si
Si8 1.0000000000 0.6666662868 0.3333356103 0.0000000000  Biso 1.0 Si
Si9 1.0000000000 0.0000000000 0.0000000000 0.5000000000  Biso 1.0 Si
