# AFLOW.org Repositories
# Hf2Hg1 #139 - (Hf2Hg1_ICSD_638564) - Hf2
data_Hf2Hg1
_pd_phase_name Hf2Hg1
_cell_length_a  6.3439004172
_cell_length_b  6.3439004172
_cell_length_c  6.3439004172
_cell_angle_alpha  149.5112586904
_cell_angle_beta  149.5112586904
_cell_angle_gamma  43.6592983132
_symmetry_space_group_name_H-M  'P1'
_symmetry_Int_Tables_Number  1
loop_
_symmetry_equiv_pos_site_id
_symmetry_equiv_pos_as_xyz
  1  x,y,z
loop_
 _atom_site_label
 _atom_site_occupancy
 _atom_site_fract_x
 _atom_site_fract_y
 _atom_site_fract_z
 _atom_site_thermal_displace_type
 _atom_site_B_iso_or_equiv
 _atom_site_type_symbol
Hf1 1.0000000000 0.3336383380 0.3336383380 0.0000000000  Biso 1.0 Hf
Hf2 1.0000000000 0.6663616620 0.6663616620 0.0000000000  Biso 1.0 Hf
Hg3 1.0000000000 0.0000000000 0.0000000000 0.0000000000  Biso 1.0 Hg
