# AFLOW.org Repositories
# Hf5Ir3 #193 - (Hf5Ir3_ICSD_638578) - Hf5
data_Hf5Ir3
_pd_phase_name Hf5Ir3
_cell_length_a  7.9317371210
_cell_length_b  7.9317371210
_cell_length_c  5.5074678948
_cell_angle_alpha  90.0000000000
_cell_angle_beta  90.0000000000
_cell_angle_gamma  120.0000000000
_symmetry_space_group_name_H-M  'P1'
_symmetry_Int_Tables_Number  1
loop_
_symmetry_equiv_pos_site_id
_symmetry_equiv_pos_as_xyz
  1  x,y,z
loop_
 _atom_site_label
 _atom_site_occupancy
 _atom_site_fract_x
 _atom_site_fract_y
 _atom_site_fract_z
 _atom_site_thermal_displace_type
 _atom_site_B_iso_or_equiv
 _atom_site_type_symbol
Hf1 1.0000000000 0.3333301820 0.6666698180 0.0000000000  Biso 1.0 Hf
Hf2 1.0000000000 0.6666698180 0.3333301820 0.5000000000  Biso 1.0 Hf
Hf3 1.0000000000 0.6666698180 0.3333301820 0.0000000000  Biso 1.0 Hf
Hf4 1.0000000000 0.3333301820 0.6666698180 0.5000000000  Biso 1.0 Hf
Hf5 1.0000000000 0.2402076875 0.0000000000 0.2500000000  Biso 1.0 Hf
Hf6 1.0000000000 0.0000000000 0.2402076875 0.2500000000  Biso 1.0 Hf
Hf7 1.0000000000 0.7597891056 0.7597891056 0.2500000000  Biso 1.0 Hf
Hf8 1.0000000000 0.7597923125 0.0000000000 0.7500000000  Biso 1.0 Hf
Hf9 1.0000000000 0.0000000000 0.7597923125 0.7500000000  Biso 1.0 Hf
Hf10 1.0000000000 0.2402108944 0.2402108944 0.7500000000  Biso 1.0 Hf
Ir11 1.0000000000 0.6026288618 0.0000000000 0.2500000000  Biso 1.0 Ir
Ir12 1.0000000000 0.0000000000 0.6026288618 0.2500000000  Biso 1.0 Ir
Ir13 1.0000000000 0.3973701511 0.3973701511 0.2500000000  Biso 1.0 Ir
Ir14 1.0000000000 0.3973711382 0.0000000000 0.7500000000  Biso 1.0 Ir
Ir15 1.0000000000 0.0000000000 0.3973711382 0.7500000000  Biso 1.0 Ir
Ir16 1.0000000000 0.6026298489 0.6026298489 0.7500000000  Biso 1.0 Ir
