# AFLOW.org Repositories
# In1P1 #186 - (In1P1_ICSD_180911) - In1P1
data_In1P1
_pd_phase_name In1P1
_cell_length_a  4.1942992264
_cell_length_b  4.1942992264
_cell_length_c  6.8834185445
_cell_angle_alpha  90.0000000000
_cell_angle_beta  90.0000000000
_cell_angle_gamma  120.0000000000
_symmetry_space_group_name_H-M  'P1'
_symmetry_Int_Tables_Number  1
loop_
_symmetry_equiv_pos_site_id
_symmetry_equiv_pos_as_xyz
  1  x,y,z
loop_
 _atom_site_label
 _atom_site_occupancy
 _atom_site_fract_x
 _atom_site_fract_y
 _atom_site_fract_z
 _atom_site_thermal_displace_type
 _atom_site_B_iso_or_equiv
 _atom_site_type_symbol
In1 1.0000000000 0.3333242590 0.6666757410 0.9981422605  Biso 1.0 In
In2 1.0000000000 0.6666757410 0.3333242590 0.4981422605  Biso 1.0 In
P3 1.0000000000 0.3333094694 0.6666905306 0.3728577395  Biso 1.0 P
P4 1.0000000000 0.6666905306 0.3333094694 0.8728577395  Biso 1.0 P
