# AFLOW.org Repositories
# Ir1Lu1Si1 #62 - (Ir1Lu1Si1_ICSD_413857) 
data_Ir1Lu1Si1
_pd_phase_name Ir1Lu1Si1
_cell_length_a  4.1553663938
_cell_length_b  6.6704304475
_cell_length_c  7.3774853190
_cell_angle_alpha  90.0000000000
_cell_angle_beta  90.0000000000
_cell_angle_gamma  90.0000000000
_symmetry_space_group_name_H-M  'P1'
_symmetry_Int_Tables_Number  1
loop_
_symmetry_equiv_pos_site_id
_symmetry_equiv_pos_as_xyz
  1  x,y,z
loop_
 _atom_site_label
 _atom_site_occupancy
 _atom_site_fract_x
 _atom_site_fract_y
 _atom_site_fract_z
 _atom_site_thermal_displace_type
 _atom_site_B_iso_or_equiv
 _atom_site_type_symbol
Ir1 1.0000000000 0.2500000000 0.3412256399 0.5638579881  Biso 1.0 Ir
Ir2 1.0000000000 0.7500000000 0.1587743601 0.0638579881  Biso 1.0 Ir
Ir3 1.0000000000 0.7500000000 0.6587743601 0.4361420119  Biso 1.0 Ir
Ir4 1.0000000000 0.2500000000 0.8412256399 0.9361420119  Biso 1.0 Ir
Lu5 1.0000000000 0.2500000000 0.9924179593 0.3128944649  Biso 1.0 Lu
Lu6 1.0000000000 0.7500000000 0.5075820407 0.8128944649  Biso 1.0 Lu
Lu7 1.0000000000 0.7500000000 0.0075820407 0.6871055351  Biso 1.0 Lu
Lu8 1.0000000000 0.2500000000 0.4924179593 0.1871055351  Biso 1.0 Lu
Si9 1.0000000000 0.2500000000 0.2061888802 0.8859594587  Biso 1.0 Si
Si10 1.0000000000 0.7500000000 0.2938111198 0.3859594587  Biso 1.0 Si
Si11 1.0000000000 0.7500000000 0.7938111198 0.1140405413  Biso 1.0 Si
Si12 1.0000000000 0.2500000000 0.7061888802 0.6140405413  Biso 1.0 Si
