# AFLOW.org Repositories
# Ir3Th7 #186 - (Ir3Th7_ICSD_150670) - Ir3
data_Ir3Th7
_pd_phase_name Ir3Th7
_cell_length_a  10.3404453503
_cell_length_b  10.3404453503
_cell_length_c  6.4994526738
_cell_angle_alpha  90.0000000000
_cell_angle_beta  90.0000000000
_cell_angle_gamma  120.0000000000
_symmetry_space_group_name_H-M  'P1'
_symmetry_Int_Tables_Number  1
loop_
_symmetry_equiv_pos_site_id
_symmetry_equiv_pos_as_xyz
  1  x,y,z
loop_
 _atom_site_label
 _atom_site_occupancy
 _atom_site_fract_x
 _atom_site_fract_y
 _atom_site_fract_z
 _atom_site_thermal_displace_type
 _atom_site_B_iso_or_equiv
 _atom_site_type_symbol
Ir1 1.0000000000 0.1874355908 0.3748711815 0.0565775613  Biso 1.0 Ir
Ir2 1.0000000000 0.6251295968 0.8125612170 0.0565771472  Biso 1.0 Ir
Ir3 1.0000000000 0.1874316202 0.8125612170 0.0565771472  Biso 1.0 Ir
Ir4 1.0000000000 0.8125644092 0.6251288185 0.5565775613  Biso 1.0 Ir
Ir5 1.0000000000 0.3748704032 0.1874387830 0.5565771472  Biso 1.0 Ir
Ir6 1.0000000000 0.8125683798 0.1874387830 0.5565771472  Biso 1.0 Ir
Th7 1.0000000000 0.6666710080 0.3333420160 0.8037132602  Biso 1.0 Th
Th8 1.0000000000 0.3333289920 0.6666579840 0.3037132602  Biso 1.0 Th
Th9 1.0000000000 0.8725504309 0.7451008617 0.9916155560  Biso 1.0 Th
Th10 1.0000000000 0.2548975396 0.1274531807 0.9916212832  Biso 1.0 Th
Th11 1.0000000000 0.8725556411 0.1274531807 0.9916212832  Biso 1.0 Th
Th12 1.0000000000 0.1274495691 0.2548991383 0.4916155560  Biso 1.0 Th
Th13 1.0000000000 0.7451024604 0.8725468193 0.4916212832  Biso 1.0 Th
Th14 1.0000000000 0.1274443589 0.8725468193 0.4916212832  Biso 1.0 Th
Th15 1.0000000000 0.4565353898 0.9130707795 0.7978989906  Biso 1.0 Th
Th16 1.0000000000 0.0869266110 0.5434595924 0.7978988856  Biso 1.0 Th
Th17 1.0000000000 0.4565329814 0.5434595924 0.7978988856  Biso 1.0 Th
Th18 1.0000000000 0.5434646102 0.0869292205 0.2978989906  Biso 1.0 Th
Th19 1.0000000000 0.9130733890 0.4565404076 0.2978988856  Biso 1.0 Th
Th20 1.0000000000 0.5434670186 0.4565404076 0.2978988856  Biso 1.0 Th
