# AFLOW.org Repositories
# Ir4Sn13Sr3 #223 - (Ir4Sn13Sr3_ICSD_64105
data_Ir4Sn13Sr3
_pd_phase_name Ir4Sn13Sr3
_cell_length_a  10.0068173088
_cell_length_b  10.0068173088
_cell_length_c  10.0068173088
_cell_angle_alpha  90.0000000000
_cell_angle_beta  90.0000000000
_cell_angle_gamma  90.0000000000
_symmetry_space_group_name_H-M  'P1'
_symmetry_Int_Tables_Number  1
loop_
_symmetry_equiv_pos_site_id
_symmetry_equiv_pos_as_xyz
  1  x,y,z
loop_
 _atom_site_label
 _atom_site_occupancy
 _atom_site_fract_x
 _atom_site_fract_y
 _atom_site_fract_z
 _atom_site_thermal_displace_type
 _atom_site_B_iso_or_equiv
 _atom_site_type_symbol
Ir1 1.0000000000 0.7500000000 0.7500000000 0.2500000000  Biso 1.0 Ir
Ir2 1.0000000000 0.2500000000 0.2500000000 0.2500000000  Biso 1.0 Ir
Ir3 1.0000000000 0.2500000000 0.7500000000 0.7500000000  Biso 1.0 Ir
Ir4 1.0000000000 0.7500000000 0.2500000000 0.7500000000  Biso 1.0 Ir
Ir5 1.0000000000 0.2500000000 0.2500000000 0.7500000000  Biso 1.0 Ir
Ir6 1.0000000000 0.7500000000 0.7500000000 0.7500000000  Biso 1.0 Ir
Ir7 1.0000000000 0.7500000000 0.2500000000 0.2500000000  Biso 1.0 Ir
Ir8 1.0000000000 0.2500000000 0.7500000000 0.2500000000  Biso 1.0 Ir
Sn9 1.0000000000 0.0000000000 0.0000000000 0.0000000000  Biso 1.0 Sn
Sn10 1.0000000000 0.5000000000 0.5000000000 0.5000000000  Biso 1.0 Sn
Sn11 1.0000000000 0.0000000000 0.6993110936 0.1538454965  Biso 1.0 Sn
Sn12 1.0000000000 0.0000000000 0.3006889064 0.1538454965  Biso 1.0 Sn
Sn13 1.0000000000 0.0000000000 0.6993110936 0.8461545035  Biso 1.0 Sn
Sn14 1.0000000000 0.0000000000 0.3006889064 0.8461545035  Biso 1.0 Sn
Sn15 1.0000000000 0.8461545035 0.0000000000 0.3006889064  Biso 1.0 Sn
Sn16 1.0000000000 0.8461545035 0.0000000000 0.6993110936  Biso 1.0 Sn
Sn17 1.0000000000 0.1538454965 0.0000000000 0.3006889064  Biso 1.0 Sn
Sn18 1.0000000000 0.1538454965 0.0000000000 0.6993110936  Biso 1.0 Sn
Sn19 1.0000000000 0.6993110936 0.8461545035 0.0000000000  Biso 1.0 Sn
Sn20 1.0000000000 0.3006889064 0.8461545035 0.0000000000  Biso 1.0 Sn
Sn21 1.0000000000 0.6993110936 0.1538454965 0.0000000000  Biso 1.0 Sn
Sn22 1.0000000000 0.3006889064 0.1538454965 0.0000000000  Biso 1.0 Sn
Sn23 1.0000000000 0.1993110936 0.5000000000 0.3461545035  Biso 1.0 Sn
Sn24 1.0000000000 0.8006889064 0.5000000000 0.3461545035  Biso 1.0 Sn
Sn25 1.0000000000 0.1993110936 0.5000000000 0.6538454965  Biso 1.0 Sn
Sn26 1.0000000000 0.8006889064 0.5000000000 0.6538454965  Biso 1.0 Sn
Sn27 1.0000000000 0.5000000000 0.3461545035 0.1993110936  Biso 1.0 Sn
Sn28 1.0000000000 0.5000000000 0.3461545035 0.8006889064  Biso 1.0 Sn
Sn29 1.0000000000 0.5000000000 0.6538454965 0.1993110936  Biso 1.0 Sn
Sn30 1.0000000000 0.5000000000 0.6538454965 0.8006889064  Biso 1.0 Sn
Sn31 1.0000000000 0.3461545035 0.1993110936 0.5000000000  Biso 1.0 Sn
Sn32 1.0000000000 0.3461545035 0.8006889064 0.5000000000  Biso 1.0 Sn
Sn33 1.0000000000 0.6538454965 0.1993110936 0.5000000000  Biso 1.0 Sn
Sn34 1.0000000000 0.6538454965 0.8006889064 0.5000000000  Biso 1.0 Sn
Sr35 1.0000000000 0.7500000000 0.5000000000 0.0000000000  Biso 1.0 Sr
Sr36 1.0000000000 0.2500000000 0.5000000000 0.0000000000  Biso 1.0 Sr
Sr37 1.0000000000 0.0000000000 0.7500000000 0.5000000000  Biso 1.0 Sr
Sr38 1.0000000000 0.0000000000 0.2500000000 0.5000000000  Biso 1.0 Sr
Sr39 1.0000000000 0.5000000000 0.0000000000 0.2500000000  Biso 1.0 Sr
Sr40 1.0000000000 0.5000000000 0.0000000000 0.7500000000  Biso 1.0 Sr
