# AFLOW.org Repositories
# K1P2Rh2 #139 - (K1P2Rh2_ICSD_641292) - K
data_K1P2Rh2
_pd_phase_name K1P2Rh2
_cell_length_a  7.0847855505
_cell_length_b  7.0847855505
_cell_length_c  7.0847855505
_cell_angle_alpha  147.8563572264
_cell_angle_beta  147.8563572264
_cell_angle_gamma  46.0974570252
_symmetry_space_group_name_H-M  'P1'
_symmetry_Int_Tables_Number  1
loop_
_symmetry_equiv_pos_site_id
_symmetry_equiv_pos_as_xyz
  1  x,y,z
loop_
 _atom_site_label
 _atom_site_occupancy
 _atom_site_fract_x
 _atom_site_fract_y
 _atom_site_fract_z
 _atom_site_thermal_displace_type
 _atom_site_B_iso_or_equiv
 _atom_site_type_symbol
K1 1.0000000000 0.0000000000 0.0000000000 0.0000000000  Biso 1.0 K
P2 1.0000000000 0.3468619955 0.3468619955 0.0000000000  Biso 1.0 P
P3 1.0000000000 0.6531380045 0.6531380045 0.0000000000  Biso 1.0 P
Rh4 1.0000000000 0.2500000000 0.7500000000 0.5000000000  Biso 1.0 Rh
Rh5 1.0000000000 0.7500000000 0.2500000000 0.5000000000  Biso 1.0 Rh
