# AFLOW.org Repositories
# La1Pb1Pd1 #189 - (La1Pb1Pd1_ICSD_657940)
data_La1Pb1Pd1
_pd_phase_name La1Pb1Pd1
_cell_length_a  7.9360068986
_cell_length_b  7.9360068986
_cell_length_c  4.2388351767
_cell_angle_alpha  90.0000000000
_cell_angle_beta  90.0000000000
_cell_angle_gamma  120.0000000000
_symmetry_space_group_name_H-M  'P1'
_symmetry_Int_Tables_Number  1
loop_
_symmetry_equiv_pos_site_id
_symmetry_equiv_pos_as_xyz
  1  x,y,z
loop_
 _atom_site_label
 _atom_site_occupancy
 _atom_site_fract_x
 _atom_site_fract_y
 _atom_site_fract_z
 _atom_site_thermal_displace_type
 _atom_site_B_iso_or_equiv
 _atom_site_type_symbol
La1 1.0000000000 0.0000000000 0.4110147063 0.5000000000  Biso 1.0 La
La2 1.0000000000 0.5889852937 0.5889852937 0.5000000000  Biso 1.0 La
La3 1.0000000000 0.4110161140 0.0000000000 0.5000000000  Biso 1.0 La
Pb4 1.0000000000 0.0000000000 0.7475602541 0.0000000000  Biso 1.0 Pb
Pb5 1.0000000000 0.2524397459 0.2524397459 0.0000000000  Biso 1.0 Pb
Pb6 1.0000000000 0.7475540625 0.0000000000 0.0000000000  Biso 1.0 Pb
Pd7 1.0000000000 0.6666806835 0.3333617820 0.0000000000  Biso 1.0 Pd
Pd8 1.0000000000 0.3333189015 0.6666382180 0.0000000000  Biso 1.0 Pd
Pd9 1.0000000000 0.0000000000 0.0000000000 0.5000000000  Biso 1.0 Pd
