# AFLOW.org Repositories
# La4Sb3 #220 - (La4Sb3_ICSD_641896) - La4
data_La4Sb3
_pd_phase_name La4Sb3
_cell_length_a  8.4477217679
_cell_length_b  8.4477217679
_cell_length_c  8.4477217679
_cell_angle_alpha  109.4712206345
_cell_angle_beta  109.4712206345
_cell_angle_gamma  109.4712206345
_symmetry_space_group_name_H-M  'P1'
_symmetry_Int_Tables_Number  1
loop_
_symmetry_equiv_pos_site_id
_symmetry_equiv_pos_as_xyz
  1  x,y,z
loop_
 _atom_site_label
 _atom_site_occupancy
 _atom_site_fract_x
 _atom_site_fract_y
 _atom_site_fract_z
 _atom_site_thermal_displace_type
 _atom_site_B_iso_or_equiv
 _atom_site_type_symbol
La1 1.0000000000 0.0000000000 0.0000000000 0.1409914889  Biso 1.0 La
La2 1.0000000000 0.5000000000 0.1409914889 0.5000000000  Biso 1.0 La
La3 1.0000000000 0.6409914889 0.5000000000 0.0000000000  Biso 1.0 La
La4 1.0000000000 0.8590085111 0.3590085111 0.3590085111  Biso 1.0 La
La5 1.0000000000 0.0000000000 0.0000000000 0.6409914889  Biso 1.0 La
La6 1.0000000000 0.5000000000 0.6409914889 0.5000000000  Biso 1.0 La
La7 1.0000000000 0.3590085111 0.8590085111 0.8590085111  Biso 1.0 La
La8 1.0000000000 0.1409914889 0.5000000000 0.0000000000  Biso 1.0 La
Sb9 1.0000000000 0.6250000000 0.8750000000 0.2500000000  Biso 1.0 Sb
Sb10 1.0000000000 0.8750000000 0.6250000000 0.7500000000  Biso 1.0 Sb
Sb11 1.0000000000 0.1250000000 0.7500000000 0.3750000000  Biso 1.0 Sb
Sb12 1.0000000000 0.3750000000 0.2500000000 0.1250000000  Biso 1.0 Sb
Sb13 1.0000000000 0.2500000000 0.3750000000 0.6250000000  Biso 1.0 Sb
Sb14 1.0000000000 0.7500000000 0.1250000000 0.8750000000  Biso 1.0 Sb
