# AFLOW.org Repositories
# N1V2 #162 - (N1V2_ICSD_167802) - N1V2 [N
data_N1V2
_pd_phase_name N1V2
_cell_length_a  4.9533145506
_cell_length_b  4.9533145506
_cell_length_c  4.5767973401
_cell_angle_alpha  90.0000000000
_cell_angle_beta  90.0000000000
_cell_angle_gamma  120.0000000000
_symmetry_space_group_name_H-M  'P1'
_symmetry_Int_Tables_Number  1
loop_
_symmetry_equiv_pos_site_id
_symmetry_equiv_pos_as_xyz
  1  x,y,z
loop_
 _atom_site_label
 _atom_site_occupancy
 _atom_site_fract_x
 _atom_site_fract_y
 _atom_site_fract_z
 _atom_site_thermal_displace_type
 _atom_site_B_iso_or_equiv
 _atom_site_type_symbol
N1 1.0000000000 0.6666669923 0.3333339846 0.5000000000  Biso 1.0 N
N2 1.0000000000 0.3333330077 0.6666660154 0.5000000000  Biso 1.0 N
N3 1.0000000000 0.0000000000 0.0000000000 0.0000000000  Biso 1.0 N
V4 1.0000000000 0.0000000000 0.6613763405 0.2441878737  Biso 1.0 V
V5 1.0000000000 0.3386258472 0.3386236595 0.2441878737  Biso 1.0 V
V6 1.0000000000 0.6613743241 0.0000000000 0.2441886992  Biso 1.0 V
V7 1.0000000000 0.6613741528 0.6613763405 0.7558121263  Biso 1.0 V
V8 1.0000000000 0.0000000000 0.3386236595 0.7558121263  Biso 1.0 V
V9 1.0000000000 0.3386256759 0.0000000000 0.7558113008  Biso 1.0 V
