# AFLOW.org Repositories
# N1Y1 #186 - (N1Y1_ICSD_161078) - N1Y1 [N
data_N1Y1
_pd_phase_name N1Y1
_cell_length_a  4.0395074354
_cell_length_b  4.0395074354
_cell_length_c  4.9301331123
_cell_angle_alpha  90.0000000000
_cell_angle_beta  90.0000000000
_cell_angle_gamma  120.0000000000
_symmetry_space_group_name_H-M  'P1'
_symmetry_Int_Tables_Number  1
loop_
_symmetry_equiv_pos_site_id
_symmetry_equiv_pos_as_xyz
  1  x,y,z
loop_
 _atom_site_label
 _atom_site_occupancy
 _atom_site_fract_x
 _atom_site_fract_y
 _atom_site_fract_z
 _atom_site_thermal_displace_type
 _atom_site_B_iso_or_equiv
 _atom_site_type_symbol
N1 1.0000000000 0.3332901869 0.6667098131 0.4437582205  Biso 1.0 N
N2 1.0000000000 0.6667098131 0.3332901869 0.9437582205  Biso 1.0 N
Y3 1.0000000000 0.3333071198 0.6666928802 0.9437417795  Biso 1.0 Y
Y4 1.0000000000 0.6666928802 0.3333071198 0.4437417795  Biso 1.0 Y
