# AFLOW.org Repositories
# Nb5P1Si3 #193 - (Nb5P1Si3_ICSD_165098) -
data_Nb5P1Si3
_pd_phase_name Nb5P1Si3
_cell_length_a  7.7490945664
_cell_length_b  7.7490945664
_cell_length_c  5.5343067090
_cell_angle_alpha  90.0000000000
_cell_angle_beta  90.0000000000
_cell_angle_gamma  120.0000000000
_symmetry_space_group_name_H-M  'P1'
_symmetry_Int_Tables_Number  1
loop_
_symmetry_equiv_pos_site_id
_symmetry_equiv_pos_as_xyz
  1  x,y,z
loop_
 _atom_site_label
 _atom_site_occupancy
 _atom_site_fract_x
 _atom_site_fract_y
 _atom_site_fract_z
 _atom_site_thermal_displace_type
 _atom_site_B_iso_or_equiv
 _atom_site_type_symbol
Nb1 1.0000000000 0.3333324838 0.6666675162 0.0000000000  Biso 1.0 Nb
Nb2 1.0000000000 0.6666675162 0.3333324838 0.5000000000  Biso 1.0 Nb
Nb3 1.0000000000 0.6666675162 0.3333324838 0.0000000000  Biso 1.0 Nb
Nb4 1.0000000000 0.3333324838 0.6666675162 0.5000000000  Biso 1.0 Nb
Nb5 1.0000000000 0.2614078161 0.0000000000 0.2500000000  Biso 1.0 Nb
Nb6 1.0000000000 0.0000000000 0.2614078161 0.2500000000  Biso 1.0 Nb
Nb7 1.0000000000 0.7385934613 0.7385934613 0.2500000000  Biso 1.0 Nb
Nb8 1.0000000000 0.7385921839 0.0000000000 0.7500000000  Biso 1.0 Nb
Nb9 1.0000000000 0.0000000000 0.7385921839 0.7500000000  Biso 1.0 Nb
Nb10 1.0000000000 0.2614065387 0.2614065387 0.7500000000  Biso 1.0 Nb
P11 1.0000000000 0.0000000000 0.0000000000 0.0000000000  Biso 1.0 P
P12 1.0000000000 0.0000000000 0.0000000000 0.5000000000  Biso 1.0 P
Si13 1.0000000000 0.5997862684 0.0000000000 0.2500000000  Biso 1.0 Si
Si14 1.0000000000 0.0000000000 0.5997862684 0.2500000000  Biso 1.0 Si
Si15 1.0000000000 0.4002157470 0.4002157470 0.2500000000  Biso 1.0 Si
Si16 1.0000000000 0.4002137316 0.0000000000 0.7500000000  Biso 1.0 Si
Si17 1.0000000000 0.0000000000 0.4002137316 0.7500000000  Biso 1.0 Si
Si18 1.0000000000 0.5997842530 0.5997842530 0.7500000000  Biso 1.0 Si
