# AFLOW.org Repositories
# Nb6Sn6Tb1 #191 - (Nb6Sn6Tb1_ICSD_261123)
data_Nb6Sn6Tb1
_pd_phase_name Nb6Sn6Tb1
_cell_length_a  5.8432859854
_cell_length_b  5.8432859854
_cell_length_c  9.7385812623
_cell_angle_alpha  90.0000000000
_cell_angle_beta  90.0000000000
_cell_angle_gamma  120.0000000000
_symmetry_space_group_name_H-M  'P1'
_symmetry_Int_Tables_Number  1
loop_
_symmetry_equiv_pos_site_id
_symmetry_equiv_pos_as_xyz
  1  x,y,z
loop_
 _atom_site_label
 _atom_site_occupancy
 _atom_site_fract_x
 _atom_site_fract_y
 _atom_site_fract_z
 _atom_site_thermal_displace_type
 _atom_site_B_iso_or_equiv
 _atom_site_type_symbol
Nb1 1.0000000000 0.5000000000 0.5000000000 0.2492296033  Biso 1.0 Nb
Nb2 1.0000000000 0.5000000000 0.0000000000 0.2492311350  Biso 1.0 Nb
Nb3 1.0000000000 0.0000000000 0.5000000000 0.2492296033  Biso 1.0 Nb
Nb4 1.0000000000 0.0000000000 0.5000000000 0.7507703967  Biso 1.0 Nb
Nb5 1.0000000000 0.5000000000 0.0000000000 0.7507688650  Biso 1.0 Nb
Nb6 1.0000000000 0.5000000000 0.5000000000 0.7507703967  Biso 1.0 Nb
Sn7 1.0000000000 0.6666568389 0.3333136778 0.5000000000  Biso 1.0 Sn
Sn8 1.0000000000 0.3333431611 0.6666863222 0.5000000000  Biso 1.0 Sn
Sn9 1.0000000000 0.6666559531 0.3333119061 0.0000000000  Biso 1.0 Sn
Sn10 1.0000000000 0.3333440469 0.6666880939 0.0000000000  Biso 1.0 Sn
Sn11 1.0000000000 0.0000000000 0.0000000000 0.3243408719  Biso 1.0 Sn
Sn12 1.0000000000 0.0000000000 0.0000000000 0.6756591281  Biso 1.0 Sn
Tb13 1.0000000000 0.0000000000 0.0000000000 0.0000000000  Biso 1.0 Tb
