# AFLOW.org Repositories
# Ni1S2 #58 - (Ni1S2_ICSD_169570) - Ni1S2 
data_Ni1S2
_pd_phase_name Ni1S2
_cell_length_a  3.6548419851
_cell_length_b  4.6948332008
_cell_length_c  5.7964336191
_cell_angle_alpha  90.0000000000
_cell_angle_beta  90.0000000000
_cell_angle_gamma  90.0000000000
_symmetry_space_group_name_H-M  'P1'
_symmetry_Int_Tables_Number  1
loop_
_symmetry_equiv_pos_site_id
_symmetry_equiv_pos_as_xyz
  1  x,y,z
loop_
 _atom_site_label
 _atom_site_occupancy
 _atom_site_fract_x
 _atom_site_fract_y
 _atom_site_fract_z
 _atom_site_thermal_displace_type
 _atom_site_B_iso_or_equiv
 _atom_site_type_symbol
Ni1 1.0000000000 0.0000000000 0.0000000000 0.0000000000  Biso 1.0 Ni
Ni2 1.0000000000 0.5000000000 0.5000000000 0.5000000000  Biso 1.0 Ni
S3 1.0000000000 0.0000000000 0.1790881857 0.6064507296  Biso 1.0 S
S4 1.0000000000 0.0000000000 0.8209118143 0.3935492704  Biso 1.0 S
S5 1.0000000000 0.5000000000 0.3209118143 0.1064507296  Biso 1.0 S
S6 1.0000000000 0.5000000000 0.6790881857 0.8935492704  Biso 1.0 S
