# AFLOW.org Repositories
# Ni1Si3Sr1 #107 - (Ni1Si3Sr1_ICSD_174268)
data_Ni1Si3Sr1
_pd_phase_name Ni1Si3Sr1
_cell_length_a  5.7214020039
_cell_length_b  5.7214020039
_cell_length_c  5.7214020039
_cell_angle_alpha  137.0331426546
_cell_angle_beta  137.0331426546
_cell_angle_gamma  62.3870605316
_symmetry_space_group_name_H-M  'P1'
_symmetry_Int_Tables_Number  1
loop_
_symmetry_equiv_pos_site_id
_symmetry_equiv_pos_as_xyz
  1  x,y,z
loop_
 _atom_site_label
 _atom_site_occupancy
 _atom_site_fract_x
 _atom_site_fract_y
 _atom_site_fract_z
 _atom_site_thermal_displace_type
 _atom_site_B_iso_or_equiv
 _atom_site_type_symbol
Ni1 1.0000000000 0.7550517557 0.7550517557 0.0000000000  Biso 1.0 Ni
Si2 1.0000000000 0.9985641945 0.9985641945 0.0000000000  Biso 1.0 Si
Si3 1.0000000000 0.6501051070 0.1501051070 0.5000000000  Biso 1.0 Si
Si4 1.0000000000 0.1501051070 0.6501051070 0.5000000000  Biso 1.0 Si
Sr5 1.0000000000 0.4004738358 0.4004738358 0.0000000000  Biso 1.0 Sr
