# AFLOW.org Repositories
# Ni3Ta1 #59.0 - (Ni3Ta1_ICSD_105391) - Ni
data_Ni3Ta1
_pd_phase_name Ni3Ta1
_cell_length_a  4.2359378806
_cell_length_b  4.5278085382
_cell_length_c  5.0688553261
_cell_angle_alpha  90.0000000000
_cell_angle_beta  90.0000000000
_cell_angle_gamma  90.0000000000
_symmetry_space_group_name_H-M  'P1'
_symmetry_Int_Tables_Number  1
loop_
_symmetry_equiv_pos_site_id
_symmetry_equiv_pos_as_xyz
  1  x,y,z
loop_
 _atom_site_label
 _atom_site_occupancy
 _atom_site_fract_x
 _atom_site_fract_y
 _atom_site_fract_z
 _atom_site_thermal_displace_type
 _atom_site_B_iso_or_equiv
 _atom_site_type_symbol
Ni1 1.0000000000 0.5000000000 0.6792101409 0.0000000000  Biso 1.0 Ni
Ni2 1.0000000000 0.0000000000 0.3207898591 0.5000000000  Biso 1.0 Ni
Ni3 1.0000000000 0.0000000000 0.8425894961 0.2500870835  Biso 1.0 Ni
Ni4 1.0000000000 0.0000000000 0.8425894961 0.7499129165  Biso 1.0 Ni
Ni5 1.0000000000 0.5000000000 0.1574105039 0.2499129165  Biso 1.0 Ni
Ni6 1.0000000000 0.5000000000 0.1574105039 0.7500870835  Biso 1.0 Ni
Ta7 1.0000000000 0.0000000000 0.3501782973 0.0000000000  Biso 1.0 Ta
Ta8 1.0000000000 0.5000000000 0.6498217027 0.5000000000  Biso 1.0 Ta
