# AFLOW.org Repositories
# P1Rh1Ta1 #62 - (P1Rh1Ta1_ICSD_648003) - 
data_P1Rh1Ta1
_pd_phase_name P1Rh1Ta1
_cell_length_a  3.7570267466
_cell_length_b  6.3602114270
_cell_length_c  7.2189407168
_cell_angle_alpha  90.0000000000
_cell_angle_beta  90.0000000000
_cell_angle_gamma  90.0000000000
_symmetry_space_group_name_H-M  'P1'
_symmetry_Int_Tables_Number  1
loop_
_symmetry_equiv_pos_site_id
_symmetry_equiv_pos_as_xyz
  1  x,y,z
loop_
 _atom_site_label
 _atom_site_occupancy
 _atom_site_fract_x
 _atom_site_fract_y
 _atom_site_fract_z
 _atom_site_thermal_displace_type
 _atom_site_B_iso_or_equiv
 _atom_site_type_symbol
P1 1.0000000000 0.2500000000 0.7665343497 0.3732385301  Biso 1.0 P
P2 1.0000000000 0.7500000000 0.7334656503 0.8732385301  Biso 1.0 P
P3 1.0000000000 0.7500000000 0.2334656503 0.6267614699  Biso 1.0 P
P4 1.0000000000 0.2500000000 0.2665343497 0.1267614699  Biso 1.0 P
Rh5 1.0000000000 0.2500000000 0.1507847131 0.4368095166  Biso 1.0 Rh
Rh6 1.0000000000 0.7500000000 0.3492152869 0.9368095166  Biso 1.0 Rh
Rh7 1.0000000000 0.7500000000 0.8492152869 0.5631904834  Biso 1.0 Rh
Rh8 1.0000000000 0.2500000000 0.6507847131 0.0631904834  Biso 1.0 Rh
Ta9 1.0000000000 0.2500000000 0.0297777387 0.8329048323  Biso 1.0 Ta
Ta10 1.0000000000 0.7500000000 0.4702222613 0.3329048323  Biso 1.0 Ta
Ta11 1.0000000000 0.7500000000 0.9702222613 0.1670951677  Biso 1.0 Ta
Ta12 1.0000000000 0.2500000000 0.5297777387 0.6670951677  Biso 1.0 Ta
