# AFLOW.org Repositories
# P2Ru2Y1 #139 - (P2Ru2Y1_ICSD_602128) - P
data_P2Ru2Y1
_pd_phase_name P2Ru2Y1
_cell_length_a  5.5757277070
_cell_length_b  5.5757277070
_cell_length_c  5.5757277070
_cell_angle_alpha  137.4427711310
_cell_angle_beta  137.4427711310
_cell_angle_gamma  61.7575012363
_symmetry_space_group_name_H-M  'P1'
_symmetry_Int_Tables_Number  1
loop_
_symmetry_equiv_pos_site_id
_symmetry_equiv_pos_as_xyz
  1  x,y,z
loop_
 _atom_site_label
 _atom_site_occupancy
 _atom_site_fract_x
 _atom_site_fract_y
 _atom_site_fract_z
 _atom_site_thermal_displace_type
 _atom_site_B_iso_or_equiv
 _atom_site_type_symbol
P1 1.0000000000 0.3741928814 0.3741928814 0.0000000000  Biso 1.0 P
P2 1.0000000000 0.6258071186 0.6258071186 0.0000000000  Biso 1.0 P
Ru3 1.0000000000 0.2500000000 0.7500000000 0.5000000000  Biso 1.0 Ru
Ru4 1.0000000000 0.7500000000 0.2500000000 0.5000000000  Biso 1.0 Ru
Y5 1.0000000000 0.0000000000 0.0000000000 0.0000000000  Biso 1.0 Y
