# AFLOW.org Repositories
# Pd2Ti1 #71 - (Pd2Ti1_ICSD_167653) - Pd2T
data_Pd2Ti1
_pd_phase_name Pd2Ti1
_cell_length_a  4.9330657278
_cell_length_b  4.9330657278
_cell_length_c  4.9330657278
_cell_angle_alpha  141.9673230049
_cell_angle_beta  140.0529655941
_cell_angle_gamma  56.3376356968
_symmetry_space_group_name_H-M  'P1'
_symmetry_Int_Tables_Number  1
loop_
_symmetry_equiv_pos_site_id
_symmetry_equiv_pos_as_xyz
  1  x,y,z
loop_
 _atom_site_label
 _atom_site_occupancy
 _atom_site_fract_x
 _atom_site_fract_y
 _atom_site_fract_z
 _atom_site_thermal_displace_type
 _atom_site_B_iso_or_equiv
 _atom_site_type_symbol
Pd1 1.0000000000 0.3414274760 0.3414274760 0.0000000000  Biso 1.0 Pd
Pd2 1.0000000000 0.6585725240 0.6585725240 0.0000000000  Biso 1.0 Pd
Ti3 1.0000000000 0.0000000000 0.0000000000 0.0000000000  Biso 1.0 Ti
