# AFLOW.org Repositories
# Pt3Y7 #186 - (Pt3Y7_ICSD_649860) - Pt3Y7
data_Pt3Y7
_pd_phase_name Pt3Y7
_cell_length_a  9.8780528827
_cell_length_b  9.8780528827
_cell_length_c  6.3152066124
_cell_angle_alpha  90.0000000000
_cell_angle_beta  90.0000000000
_cell_angle_gamma  120.0000000000
_symmetry_space_group_name_H-M  'P1'
_symmetry_Int_Tables_Number  1
loop_
_symmetry_equiv_pos_site_id
_symmetry_equiv_pos_as_xyz
  1  x,y,z
loop_
 _atom_site_label
 _atom_site_occupancy
 _atom_site_fract_x
 _atom_site_fract_y
 _atom_site_fract_z
 _atom_site_thermal_displace_type
 _atom_site_B_iso_or_equiv
 _atom_site_type_symbol
Pt1 1.0000000000 0.8102082312 0.1897917688 0.3177273696  Biso 1.0 Pt
Pt2 1.0000000000 0.8102126601 0.6204164908 0.3177299917  Biso 1.0 Pt
Pt3 1.0000000000 0.3795835092 0.1897873399 0.3177299917  Biso 1.0 Pt
Pt4 1.0000000000 0.1897917688 0.8102082312 0.8177273696  Biso 1.0 Pt
Pt5 1.0000000000 0.1897873399 0.3795835092 0.8177299917  Biso 1.0 Pt
Pt6 1.0000000000 0.6204164908 0.8102126601 0.8177299917  Biso 1.0 Pt
Y7 1.0000000000 0.3333346379 0.6666653621 0.0544881184  Biso 1.0 Y
Y8 1.0000000000 0.6666653621 0.3333346379 0.5544881184  Biso 1.0 Y
Y9 1.0000000000 0.1262129147 0.8737870853 0.2431126083  Biso 1.0 Y
Y10 1.0000000000 0.1262147385 0.2524250105 0.2431182463  Biso 1.0 Y
Y11 1.0000000000 0.7475749895 0.8737852615 0.2431182463  Biso 1.0 Y
Y12 1.0000000000 0.8737870853 0.1262129147 0.7431126083  Biso 1.0 Y
Y13 1.0000000000 0.8737852615 0.7475749895 0.7431182463  Biso 1.0 Y
Y14 1.0000000000 0.2524250105 0.1262147385 0.7431182463  Biso 1.0 Y
Y15 1.0000000000 0.5399744743 0.4600255257 0.0566671832  Biso 1.0 Y
Y16 1.0000000000 0.5399725299 0.0799393467 0.0566541223  Biso 1.0 Y
Y17 1.0000000000 0.9200606533 0.4600274701 0.0566541223  Biso 1.0 Y
Y18 1.0000000000 0.4600255257 0.5399744743 0.5566671832  Biso 1.0 Y
Y19 1.0000000000 0.4600274701 0.9200606533 0.5566541223  Biso 1.0 Y
Y20 1.0000000000 0.0799393467 0.5399725299 0.5566541223  Biso 1.0 Y
