# AFLOW.org Repositories
# Pt9Sc5Si7 #174 - (Pt9Sc5Si7_ICSD_420356)
data_Pt9Sc5Si7
_pd_phase_name Pt9Sc5Si7
_cell_length_a  10.0216107033
_cell_length_b  10.0216107033
_cell_length_c  3.9251658904
_cell_angle_alpha  90.0000000000
_cell_angle_beta  90.0000000000
_cell_angle_gamma  120.0000000000
_symmetry_space_group_name_H-M  'P1'
_symmetry_Int_Tables_Number  1
loop_
_symmetry_equiv_pos_site_id
_symmetry_equiv_pos_as_xyz
  1  x,y,z
loop_
 _atom_site_label
 _atom_site_occupancy
 _atom_site_fract_x
 _atom_site_fract_y
 _atom_site_fract_z
 _atom_site_thermal_displace_type
 _atom_site_B_iso_or_equiv
 _atom_site_type_symbol
Pt1 1.0000000000 0.2857498215 0.1618142444 0.0000000000  Biso 1.0 Pt
Pt2 1.0000000000 0.8381856734 0.1239341851 0.0000000000  Biso 1.0 Pt
Pt3 1.0000000000 0.8760654785 0.7142517239 0.0000000000  Biso 1.0 Pt
Pt4 1.0000000000 0.3489947495 0.9147884000 0.0000000000  Biso 1.0 Pt
Pt5 1.0000000000 0.0852100709 0.4342057390 0.0000000000  Biso 1.0 Pt
Pt6 1.0000000000 0.5657933504 0.6510049680 0.0000000000  Biso 1.0 Pt
Pt7 1.0000000000 0.4510521214 0.3987203259 0.5000000000  Biso 1.0 Pt
Pt8 1.0000000000 0.6012790107 0.0523314587 0.5000000000  Biso 1.0 Pt
Pt9 1.0000000000 0.9476670620 0.5489467281 0.5000000000  Biso 1.0 Pt
Sc10 1.0000000000 0.1251657988 0.8949783940 0.5000000000  Biso 1.0 Sc
Sc11 1.0000000000 0.1050211337 0.2301858904 0.5000000000  Biso 1.0 Sc
Sc12 1.0000000000 0.7698137316 0.8748351337 0.5000000000  Biso 1.0 Sc
Sc13 1.0000000000 0.3333347279 0.6666682409 0.5000000000  Biso 1.0 Sc
Sc14 1.0000000000 0.6666675461 0.3333340066 0.0000000000  Biso 1.0 Sc
Si15 1.0000000000 0.0000000000 0.0000000000 0.0000000000  Biso 1.0 Si
Si16 1.0000000000 0.1104418038 0.6819723579 0.0000000000  Biso 1.0 Si
Si17 1.0000000000 0.3180261693 0.4284692739 0.0000000000  Biso 1.0 Si
Si18 1.0000000000 0.5715309998 0.8895574530 0.0000000000  Biso 1.0 Si
Si19 1.0000000000 0.4274297463 0.1455514830 0.5000000000  Biso 1.0 Si
Si20 1.0000000000 0.8544493068 0.2818783526 0.5000000000  Biso 1.0 Si
Si21 1.0000000000 0.7181212813 0.5725717589 0.5000000000  Biso 1.0 Si
