# AFLOW.org Repositories
# Re1Si1Ti1 #189 - (Re1Si1Ti1_ICSD_650125)
data_Re1Si1Ti1
_pd_phase_name Re1Si1Ti1
_cell_length_a  6.8539365858
_cell_length_b  6.8539365858
_cell_length_c  3.2818884754
_cell_angle_alpha  90.0000000000
_cell_angle_beta  90.0000000000
_cell_angle_gamma  120.0000000000
_symmetry_space_group_name_H-M  'P1'
_symmetry_Int_Tables_Number  1
loop_
_symmetry_equiv_pos_site_id
_symmetry_equiv_pos_as_xyz
  1  x,y,z
loop_
 _atom_site_label
 _atom_site_occupancy
 _atom_site_fract_x
 _atom_site_fract_y
 _atom_site_fract_z
 _atom_site_thermal_displace_type
 _atom_site_B_iso_or_equiv
 _atom_site_type_symbol
Re1 1.0000000000 0.0000000000 0.7382474691 0.0000000000  Biso 1.0 Re
Re2 1.0000000000 0.2617525309 0.2617525309 0.0000000000  Biso 1.0 Re
Re3 1.0000000000 0.7382491860 0.0000000000 0.0000000000  Biso 1.0 Re
Si4 1.0000000000 0.6666652225 0.3333329160 0.0000000000  Biso 1.0 Si
Si5 1.0000000000 0.3333323065 0.6666670840 0.0000000000  Biso 1.0 Si
Si6 1.0000000000 0.0000000000 0.0000000000 0.5000000000  Biso 1.0 Si
Ti7 1.0000000000 0.0000000000 0.4021280602 0.5000000000  Biso 1.0 Ti
Ti8 1.0000000000 0.5978719398 0.5978719398 0.5000000000  Biso 1.0 Ti
Ti9 1.0000000000 0.4021290835 0.0000000000 0.5000000000  Biso 1.0 Ti
