# AFLOW.org Repositories
# Rh1Sn1Zr1 #189 - (Rh1Sn1Zr1_ICSD_650412)
data_Rh1Sn1Zr1
_pd_phase_name Rh1Sn1Zr1
_cell_length_a  7.4286286375
_cell_length_b  7.4286286375
_cell_length_c  3.6615779961
_cell_angle_alpha  90.0000000000
_cell_angle_beta  90.0000000000
_cell_angle_gamma  120.0000000000
_symmetry_space_group_name_H-M  'P1'
_symmetry_Int_Tables_Number  1
loop_
_symmetry_equiv_pos_site_id
_symmetry_equiv_pos_as_xyz
  1  x,y,z
loop_
 _atom_site_label
 _atom_site_occupancy
 _atom_site_fract_x
 _atom_site_fract_y
 _atom_site_fract_z
 _atom_site_thermal_displace_type
 _atom_site_B_iso_or_equiv
 _atom_site_type_symbol
Rh1 1.0000000000 0.3333325585 0.6666691728 0.0000000000  Biso 1.0 Rh
Rh2 1.0000000000 0.6666691728 0.3333325585 0.0000000000  Biso 1.0 Rh
Rh3 1.0000000000 0.0000000000 0.0000000000 0.5000000000  Biso 1.0 Rh
Sn4 1.0000000000 0.2686347885 0.0000000000 0.0000000000  Biso 1.0 Sn
Sn5 1.0000000000 0.0000000000 0.2686347885 0.0000000000  Biso 1.0 Sn
Sn6 1.0000000000 0.7313616409 0.7313616409 0.0000000000  Biso 1.0 Sn
Zr7 1.0000000000 0.6025382869 0.0000000000 0.5000000000  Biso 1.0 Zr
Zr8 1.0000000000 0.0000000000 0.6025382869 0.5000000000  Biso 1.0 Zr
Zr9 1.0000000000 0.3974644521 0.3974644521 0.5000000000  Biso 1.0 Zr
