# AFLOW.org Repositories
# Ru2Sn3 #116 - (Ru2Sn3_ICSD_105994) - Ru2
data_Ru2Sn3
_pd_phase_name Ru2Sn3
_cell_length_a  6.2141666062
_cell_length_b  6.2141666062
_cell_length_c  10.0385917993
_cell_angle_alpha  90.0000000000
_cell_angle_beta  90.0000000000
_cell_angle_gamma  90.0000000000
_symmetry_space_group_name_H-M  'P1'
_symmetry_Int_Tables_Number  1
loop_
_symmetry_equiv_pos_site_id
_symmetry_equiv_pos_as_xyz
  1  x,y,z
loop_
 _atom_site_label
 _atom_site_occupancy
 _atom_site_fract_x
 _atom_site_fract_y
 _atom_site_fract_z
 _atom_site_thermal_displace_type
 _atom_site_B_iso_or_equiv
 _atom_site_type_symbol
Ru1 1.0000000000 0.5000000000 0.5000000000 0.2500000000  Biso 1.0 Ru
Ru2 1.0000000000 0.5000000000 0.5000000000 0.7500000000  Biso 1.0 Ru
Ru3 1.0000000000 0.0000000000 0.0000000000 0.0000000000  Biso 1.0 Ru
Ru4 1.0000000000 0.0000000000 0.0000000000 0.5000000000  Biso 1.0 Ru
Ru5 1.0000000000 0.0000000000 0.5000000000 0.3769435341  Biso 1.0 Ru
Ru6 1.0000000000 0.5000000000 0.0000000000 0.6230564659  Biso 1.0 Ru
Ru7 1.0000000000 0.0000000000 0.5000000000 0.8769435341  Biso 1.0 Ru
Ru8 1.0000000000 0.5000000000 0.0000000000 0.1230564659  Biso 1.0 Ru
Sn9 1.0000000000 0.1802312007 0.1802312007 0.7500000000  Biso 1.0 Sn
Sn10 1.0000000000 0.8197687993 0.8197687993 0.7500000000  Biso 1.0 Sn
Sn11 1.0000000000 0.1802312007 0.8197687993 0.2500000000  Biso 1.0 Sn
Sn12 1.0000000000 0.8197687993 0.1802312007 0.2500000000  Biso 1.0 Sn
Sn13 1.0000000000 0.2226665572 0.3419549113 0.0836387047  Biso 1.0 Sn
Sn14 1.0000000000 0.7773334428 0.6580450887 0.0836387047  Biso 1.0 Sn
Sn15 1.0000000000 0.3419549113 0.7773334428 0.9163612953  Biso 1.0 Sn
Sn16 1.0000000000 0.6580450887 0.2226665572 0.9163612953  Biso 1.0 Sn
Sn17 1.0000000000 0.2226665572 0.6580450887 0.5836387047  Biso 1.0 Sn
Sn18 1.0000000000 0.7773334428 0.3419549113 0.5836387047  Biso 1.0 Sn
Sn19 1.0000000000 0.3419549113 0.2226665572 0.4163612953  Biso 1.0 Sn
Sn20 1.0000000000 0.6580450887 0.7773334428 0.4163612953  Biso 1.0 Sn
