# AFLOW.org Repositories
# S1 #154 - (S1_ICSD_281124) - S1 [S1] hP9
data_S1
_pd_phase_name S1
_cell_length_a  8.7423756864
_cell_length_b  8.7423756864
_cell_length_c  4.4058360842
_cell_angle_alpha  90.0000000000
_cell_angle_beta  90.0000000000
_cell_angle_gamma  120.0000000000
_symmetry_space_group_name_H-M  'P1'
_symmetry_Int_Tables_Number  1
loop_
_symmetry_equiv_pos_site_id
_symmetry_equiv_pos_as_xyz
  1  x,y,z
loop_
 _atom_site_label
 _atom_site_occupancy
 _atom_site_fract_x
 _atom_site_fract_y
 _atom_site_fract_z
 _atom_site_thermal_displace_type
 _atom_site_B_iso_or_equiv
 _atom_site_type_symbol
S1 1.0000000000 0.7523294363 0.3148701656 0.6050027045  Biso 1.0 S
S2 1.0000000000 0.6851298344 0.4374592706 0.2716693712  Biso 1.0 S
S3 1.0000000000 0.5625407294 0.2476705637 0.9383360378  Biso 1.0 S
S4 1.0000000000 0.3148674233 0.7523276842 0.3950066640  Biso 1.0 S
S5 1.0000000000 0.4374602609 0.6851325767 0.7283399974  Biso 1.0 S
S6 1.0000000000 0.2476723158 0.5625397391 0.0616733307  Biso 1.0 S
S7 1.0000000000 0.9035246581 0.0000000000 0.1666906315  Biso 1.0 S
S8 1.0000000000 0.0000000000 0.9035243899 0.8333572981  Biso 1.0 S
S9 1.0000000000 0.0964756101 0.0964753419 0.5000239648  Biso 1.0 S
