# AFLOW.org Repositories
# S1Zn1 #186 - (S1Zn1_ICSD_184810) - S1Zn1
data_S1Zn1
_pd_phase_name S1Zn1
_cell_length_a  3.7977258865
_cell_length_b  3.7977258865
_cell_length_c  6.2147081695
_cell_angle_alpha  90.0000000000
_cell_angle_beta  90.0000000000
_cell_angle_gamma  120.0000000000
_symmetry_space_group_name_H-M  'P1'
_symmetry_Int_Tables_Number  1
loop_
_symmetry_equiv_pos_site_id
_symmetry_equiv_pos_as_xyz
  1  x,y,z
loop_
 _atom_site_label
 _atom_site_occupancy
 _atom_site_fract_x
 _atom_site_fract_y
 _atom_site_fract_z
 _atom_site_thermal_displace_type
 _atom_site_B_iso_or_equiv
 _atom_site_type_symbol
S1 1.0000000000 0.3333456977 0.6666728488 0.3748671815  Biso 1.0 S
S2 1.0000000000 0.6666543023 0.3333271512 0.8748671815  Biso 1.0 S
Zn3 1.0000000000 0.3333479172 0.6666739586 0.0000000000  Biso 1.0 Zn
Zn4 1.0000000000 0.6666520828 0.3333260414 0.4991328185  Biso 1.0 Zn
