# AFLOW.org Repositories
# Sb3Y4 #220 - (Sb3Y4_ICSD_651736) - Sb3Y4
data_Sb3Y4
_pd_phase_name Sb3Y4
_cell_length_a  7.9805790229
_cell_length_b  7.9805790229
_cell_length_c  7.9805790229
_cell_angle_alpha  109.4712206345
_cell_angle_beta  109.4712206345
_cell_angle_gamma  109.4712206345
_symmetry_space_group_name_H-M  'P1'
_symmetry_Int_Tables_Number  1
loop_
_symmetry_equiv_pos_site_id
_symmetry_equiv_pos_as_xyz
  1  x,y,z
loop_
 _atom_site_label
 _atom_site_occupancy
 _atom_site_fract_x
 _atom_site_fract_y
 _atom_site_fract_z
 _atom_site_thermal_displace_type
 _atom_site_B_iso_or_equiv
 _atom_site_type_symbol
Sb1 1.0000000000 0.2500000000 0.6250000000 0.3750000000  Biso 1.0 Sb
Sb2 1.0000000000 0.7500000000 0.8750000000 0.1250000000  Biso 1.0 Sb
Sb3 1.0000000000 0.3750000000 0.2500000000 0.6250000000  Biso 1.0 Sb
Sb4 1.0000000000 0.1250000000 0.7500000000 0.8750000000  Biso 1.0 Sb
Sb5 1.0000000000 0.6250000000 0.3750000000 0.2500000000  Biso 1.0 Sb
Sb6 1.0000000000 0.8750000000 0.1250000000 0.7500000000  Biso 1.0 Sb
Y7 1.0000000000 0.1441749675 0.1441749675 0.1441749675  Biso 1.0 Y
Y8 1.0000000000 0.5000000000 0.0000000000 0.3558250325  Biso 1.0 Y
Y9 1.0000000000 0.0000000000 0.3558250325 0.5000000000  Biso 1.0 Y
Y10 1.0000000000 0.3558250325 0.5000000000 0.0000000000  Biso 1.0 Y
Y11 1.0000000000 0.6441749675 0.6441749675 0.6441749675  Biso 1.0 Y
Y12 1.0000000000 0.5000000000 0.0000000000 0.8558250325  Biso 1.0 Y
Y13 1.0000000000 0.8558250325 0.5000000000 0.0000000000  Biso 1.0 Y
Y14 1.0000000000 0.0000000000 0.8558250325 0.5000000000  Biso 1.0 Y
