# AFLOW.org Repositories
# Se1 #227.0 - (Se1_ICSD_150731) - Se1 [Se
data_Se1
_pd_phase_name Se1
_cell_length_a  8.1175146382
_cell_length_b  8.1175146382
_cell_length_c  8.1175146382
_cell_angle_alpha  60.0000000000
_cell_angle_beta  60.0000000000
_cell_angle_gamma  60.0000000000
_symmetry_space_group_name_H-M  'P1'
_symmetry_Int_Tables_Number  1
loop_
_symmetry_equiv_pos_site_id
_symmetry_equiv_pos_as_xyz
  1  x,y,z
loop_
 _atom_site_label
 _atom_site_occupancy
 _atom_site_fract_x
 _atom_site_fract_y
 _atom_site_fract_z
 _atom_site_thermal_displace_type
 _atom_site_B_iso_or_equiv
 _atom_site_type_symbol
Se1 1.0000000000 0.0000000000 0.0000000000 0.0000000000  Biso 1.0 Se
Se2 1.0000000000 0.2500000000 0.2500000000 0.2500000000  Biso 1.0 Se
Se3 1.0000000000 0.1250000000 0.1250000000 0.6250000000  Biso 1.0 Se
Se4 1.0000000000 0.1250000000 0.1250000000 0.1250000000  Biso 1.0 Se
Se5 1.0000000000 0.6250000000 0.1250000000 0.1250000000  Biso 1.0 Se
Se6 1.0000000000 0.1250000000 0.6250000000 0.1250000000  Biso 1.0 Se
