# AFLOW.org Repositories
# Te2Y1 #129.2 - (Te2Y1_ICSD_653179) - Te2
data_Te2Y1
_pd_phase_name Te2Y1
_cell_length_a  4.4544958594
_cell_length_b  4.4544958594
_cell_length_c  8.9039355238
_cell_angle_alpha  90.0000000000
_cell_angle_beta  90.0000000000
_cell_angle_gamma  90.0000000000
_symmetry_space_group_name_H-M  'P1'
_symmetry_Int_Tables_Number  1
loop_
_symmetry_equiv_pos_site_id
_symmetry_equiv_pos_as_xyz
  1  x,y,z
loop_
 _atom_site_label
 _atom_site_occupancy
 _atom_site_fract_x
 _atom_site_fract_y
 _atom_site_fract_z
 _atom_site_thermal_displace_type
 _atom_site_B_iso_or_equiv
 _atom_site_type_symbol
Te1 1.0000000000 0.7500000000 0.2500000000 0.0000000000  Biso 1.0 Te
Te2 1.0000000000 0.2500000000 0.7500000000 0.0000000000  Biso 1.0 Te
Te3 1.0000000000 0.2500000000 0.2500000000 0.6279518984  Biso 1.0 Te
Te4 1.0000000000 0.7500000000 0.7500000000 0.3720481016  Biso 1.0 Te
Y5 1.0000000000 0.2500000000 0.2500000000 0.2709136163  Biso 1.0 Y
Y6 1.0000000000 0.7500000000 0.7500000000 0.7290863837  Biso 1.0 Y
