# AFLOW.org Repositories
# Ti2Zn1 #139 - (Ti2Zn1_ICSD_653304) - Ti2
data_Ti2Zn1
_pd_phase_name Ti2Zn1
_cell_length_a  5.7987157955
_cell_length_b  5.7987157955
_cell_length_c  5.7987157955
_cell_angle_alpha  149.2262356879
_cell_angle_beta  149.2262356879
_cell_angle_gamma  44.0784047733
_symmetry_space_group_name_H-M  'P1'
_symmetry_Int_Tables_Number  1
loop_
_symmetry_equiv_pos_site_id
_symmetry_equiv_pos_as_xyz
  1  x,y,z
loop_
 _atom_site_label
 _atom_site_occupancy
 _atom_site_fract_x
 _atom_site_fract_y
 _atom_site_fract_z
 _atom_site_thermal_displace_type
 _atom_site_B_iso_or_equiv
 _atom_site_type_symbol
Ti1 1.0000000000 0.3375693610 0.3375693610 0.0000000000  Biso 1.0 Ti
Ti2 1.0000000000 0.6624306390 0.6624306390 0.0000000000  Biso 1.0 Ti
Zn3 1.0000000000 0.0000000000 0.0000000000 0.0000000000  Biso 1.0 Zn
